ligand in water
 5605
    1LIG      C    1   3.387   3.763   1.421
    1LIG     C1    2   3.326   3.622   1.433
    1LIG      O    3   3.206   3.631   1.511
    1LIG     C2    4   3.133   3.520   1.546
    1LIG      N    5   3.172   3.400   1.499
    1LIG     C3    6   3.107   3.291   1.537
    1LIG     C4    7   2.997   3.298   1.623
    1LIG     C5    8   2.953   3.421   1.668
    1LIG     N1    9   2.842   3.426   1.748
    1LIG     C6   10   3.023   3.535   1.631
    1LIG     C7   11   2.982   3.665   1.677
    1LIG     N2   12   2.946   3.768   1.717
    1LIG     N3   13   3.150   3.167   1.492
    1LIG     C8   14   3.074   3.065   1.444
    1LIG     O1   15   2.952   3.070   1.443
    1LIG     C9   16   3.148   2.946   1.384
    1LIG    C10   17   3.288   2.921   1.442
    1LIG    C11   18   3.304   2.843   1.559
    1LIG     CL   19   3.164   2.779   1.641
    1LIG    C12   20   3.433   2.816   1.608
    1LIG    C13   21   3.545   2.865   1.540
    1LIG    C14   22   3.530   2.942   1.425
    1LIG    C15   23   3.401   2.970   1.375
    1LIG      H   24   3.475   3.761   1.356
    1LIG     H1   25   3.314   3.833   1.378
    1LIG     H2   26   3.417   3.800   1.519
    1LIG     H3   27   3.304   3.582   1.333
    1LIG     H4   28   3.399   3.555   1.481
    1LIG     H5   29   2.946   3.207   1.653
    1LIG     H6   30   2.800   3.516   1.767
    1LIG     H7   31   2.785   3.342   1.758
    1LIG     H8   32   3.251   3.158   1.481
    1LIG     H9   33   3.085   2.857   1.399
    1LIG    H10   34   3.155   2.962   1.276
    1LIG    H11   35   3.445   2.755   1.697
    1LIG    H12   36   3.645   2.841   1.577
    1LIG    H13   37   3.617   2.979   1.371
    1LIG    H14   38   3.391   3.028   1.284
    1LIG    EP1   39   3.008   2.709   1.733
    1LIG    DCL   40   3.453   2.718   1.752
    1LIG    HV6   41   2.780   3.345   1.742
    1LIG    HV7   42   2.793   3.514   1.749
    1LIG    HV8   43   3.250   3.154   1.499
    1LIG   HV11   44   3.217   2.803   1.611
    1LIG   DEP1   45   3.476   2.610   1.912
    2SOL     OW   46   0.113   0.563   0.016
    2SOL    HW1   47   0.097   0.567   0.112
    2SOL    HW2   48   0.209   0.543   0.015
    3SOL     OW   49   4.540   0.273   0.991
    3SOL    HW1   50   4.594   0.240   1.065
    3SOL    HW2   51   4.451   0.276   1.033
    4SOL     OW   52   4.365   0.358   0.653
    4SOL    HW1   53   4.278   0.401   0.643
    4SOL    HW2   54   4.370   0.305   0.571
    5SOL     OW   55   4.905   1.301   1.253
    5SOL    HW1   56   4.828   1.306   1.193
    5SOL    HW2   57   4.911   1.394   1.282
    6SOL     OW   58   1.604   1.602   0.688
    6SOL    HW1   59   1.560   1.562   0.765
    6SOL    HW2   60   1.535   1.589   0.620
    7SOL     OW   61   1.141   0.715   0.686
    7SOL    HW1   62   1.184   0.803   0.682
    7SOL    HW2   63   1.082   0.727   0.763
    8SOL     OW   64   1.827   0.585   0.212
    8SOL    HW1   65   1.864   0.516   0.154
    8SOL    HW2   66   1.747   0.539   0.246
    9SOL     OW   67   5.072   1.128   1.125
    9SOL    HW1   68   5.005   1.179   1.176
    9SOL    HW2   69   5.110   1.202   1.074
   10SOL     OW   70   5.243   0.710   1.781
   10SOL    HW1   71   5.266   0.773   1.852
   10SOL    HW2   72   5.250   0.768   1.703
   11SOL     OW   73   0.693   0.986   0.676
   11SOL    HW1   74   0.758   0.995   0.748
   11SOL    HW2   75   0.623   1.050   0.700
   12SOL     OW   76   5.055   1.153   1.856
   12SOL    HW1   77   5.095   1.231   1.899
   12SOL    HW2   78   4.982   1.191   1.806
   13SOL     OW   79   4.703   1.366   1.080
   13SOL    HW1   80   4.663   1.305   1.017
   13SOL    HW2   81   4.737   1.437   1.022
   14SOL     OW   82   1.467   1.480   1.366
   14SOL    HW1   83   1.516   1.560   1.393
   14SOL    HW2   84   1.388   1.486   1.424
   15SOL     OW   85   4.822   0.391   1.465
   15SOL    HW1   86   4.914   0.357   1.468
   15SOL    HW2   87   4.778   0.332   1.528
   16SOL     OW   88   1.524   0.451   0.650
   16SOL    HW1   89   1.426   0.451   0.652
   16SOL    HW2   90   1.539   0.522   0.585
   17SOL     OW   91   4.550   1.713   0.477
   17SOL    HW1   92   4.569   1.788   0.536
   17SOL    HW2   93   4.616   1.727   0.407
   18SOL     OW   94   5.434   1.348   1.712
   18SOL    HW1   95   5.470   1.337   1.801
   18SOL    HW2   96   5.386   1.264   1.701
   19SOL     OW   97   4.663   1.470   0.518
   19SOL    HW1   98   4.626   1.561   0.513
   19SOL    HW2   99   4.591   1.422   0.562
   20SOL     OW  100   4.615   1.083   0.903
   20SOL    HW1  101   4.623   0.988   0.925
   20SOL    HW2  102   4.531   1.107   0.948
   21SOL     OW  103   4.965   1.755   1.525
   21SOL    HW1  104   4.871   1.765   1.551
   21SOL    HW2  105   4.985   1.844   1.490
   22SOL     OW  106   0.555   0.989   0.257
   22SOL    HW1  107   0.586   1.021   0.172
   22SOL    HW2  108   0.621   1.026   0.319
   23SOL     OW  109   1.582   0.130   1.516
   23SOL    HW1  110   1.535   0.061   1.467
   23SOL    HW2  111   1.510   0.174   1.562
   24SOL     OW  112   4.479   0.586   0.538
   24SOL    HW1  113   4.443   0.506   0.581
   24SOL    HW2  114   4.463   0.652   0.608
   25SOL     OW  115   1.932   1.732   0.243
   25SOL    HW1  116   1.996   1.714   0.314
   25SOL    HW2  117   1.926   1.829   0.247
   26SOL     OW  118   4.325   1.545   0.174
   26SOL    HW1  119   4.349   1.453   0.156
   26SOL    HW2  120   4.315   1.547   0.270
   27SOL     OW  121   1.716   0.938   0.665
   27SOL    HW1  122   1.806   0.915   0.638
   27SOL    HW2  123   1.684   0.987   0.588
   28SOL     OW  124   1.651   1.112   0.446
   28SOL    HW1  125   1.727   1.105   0.385
   28SOL    HW2  126   1.683   1.178   0.510
   29SOL     OW  127   4.545   0.702   1.634
   29SOL    HW1  128   4.642   0.706   1.639
   29SOL    HW2  129   4.522   0.796   1.648
   30SOL     OW  130   0.630   1.370   0.795
   30SOL    HW1  131   0.579   1.288   0.776
   30SOL    HW2  132   0.631   1.412   0.707
   31SOL     OW  133   1.215   1.166   1.464
   31SOL    HW1  134   1.251   1.124   1.384
   31SOL    HW2  135   1.295   1.196   1.511
   32SOL     OW  136   0.865   0.088   0.594
   32SOL    HW1  137   0.896   0.164   0.542
   32SOL    HW2  138   0.777   0.073   0.555
   33SOL     OW  139   4.473   0.875   1.265
   33SOL    HW1  140   4.571   0.876   1.266
   33SOL    HW2  141   4.457   0.788   1.221
   34SOL     OW  142   1.475   1.065   0.231
   34SOL    HW1  143   1.430   0.981   0.251
   34SOL    HW2  144   1.539   1.072   0.303
   35SOL     OW  145   1.243   1.869   1.663
   35SOL    HW1  146   1.213   1.918   1.585
   35SOL    HW2  147   1.248   1.778   1.631
   36SOL     OW  148   4.707   0.212   1.631
   36SOL    HW1  149   4.745   0.123   1.645
   36SOL    HW2  150   4.695   0.244   1.723
   37SOL     OW  151   1.490   1.468   0.894
   37SOL    HW1  152   1.425   1.474   0.967
   37SOL    HW2  153   1.481   1.375   0.864
   38SOL     OW  154   1.635   1.843   0.537
   38SOL    HW1  155   1.644   1.795   0.451
   38SOL    HW2  156   1.636   1.769   0.600
   39SOL     OW  157   0.625   0.744   0.365
   39SOL    HW1  158   0.594   0.823   0.318
   39SOL    HW2  159   0.545   0.717   0.414
   40SOL     OW  160   1.292   0.391   0.928
   40SOL    HW1  161   1.207   0.347   0.944
   40SOL    HW2  162   1.351   0.336   0.984
   41SOL     OW  163   1.658   1.718   0.302
   41SOL    HW1  164   1.750   1.706   0.272
   41SOL    HW2  165   1.606   1.690   0.225
   42SOL     OW  166   5.157   0.617   1.431
   42SOL    HW1  167   5.112   0.575   1.506
   42SOL    HW2  168   5.138   0.554   1.357
   43SOL     OW  169   1.406   0.482   1.667
   43SOL    HW1  170   1.393   0.526   1.754
   43SOL    HW2  171   1.457   0.404   1.693
   44SOL     OW  172   5.289   0.893   1.570
   44SOL    HW1  173   5.344   0.831   1.518
   44SOL    HW2  174   5.236   0.934   1.500
   45SOL     OW  175   1.057   0.414   1.196
   45SOL    HW1  176   0.964   0.440   1.211
   45SOL    HW2  177   1.050   0.367   1.112
   46SOL     OW  178   1.109   0.721   0.414
   46SOL    HW1  179   1.120   0.718   0.511
   46SOL    HW2  180   1.017   0.687   0.405
   47SOL     OW  181   4.447   0.741   0.759
   47SOL    HW1  182   4.522   0.759   0.818
   47SOL    HW2  183   4.424   0.831   0.729
   48SOL     OW  184   4.455   1.868   1.632
   48SOL    HW1  185   4.447   1.816   1.715
   48SOL    HW2  186   4.363   1.902   1.624
   49SOL     OW  187   0.881   0.428   0.212
   49SOL    HW1  188   0.951   0.457   0.151
   49SOL    HW2  189   0.863   0.338   0.178
   50SOL     OW  190   1.668   0.613   1.841
   50SOL    HW1  191   1.632   0.690   1.794
   50SOL    HW2  192   1.692   0.553   1.770
   51SOL     OW  193   1.392   1.164   0.563
   51SOL    HW1  194   1.462   1.152   0.497
   51SOL    HW2  195   1.332   1.228   0.518
   52SOL     OW  196   4.941   0.208   0.953
   52SOL    HW1  197   4.942   0.232   1.048
   52SOL    HW2  198   4.917   0.293   0.911
   53SOL     OW  199   0.992   1.480   0.501
   53SOL    HW1  200   0.973   1.547   0.432
   53SOL    HW2  201   0.949   1.520   0.578
   54SOL     OW  202   4.692   1.812   0.884
   54SOL    HW1  203   4.734   1.726   0.902
   54SOL    HW2  204   4.759   1.875   0.917
   55SOL     OW  205   1.789   1.007   0.925
   55SOL    HW1  206   1.761   0.997   0.832
   55SOL    HW2  207   1.704   1.025   0.969
   56SOL     OW  208   1.231   1.507   1.504
   56SOL    HW1  209   1.195   1.447   1.571
   56SOL    HW2  210   1.151   1.551   1.471
   57SOL     OW  211   0.281   0.988   0.261
   57SOL    HW1  212   0.378   0.980   0.269
   57SOL    HW2  213   0.272   0.995   0.164
   58SOL     OW  214   1.486   0.789   0.690
   58SOL    HW1  215   1.483   0.728   0.766
   58SOL    HW2  216   1.573   0.832   0.698
   59SOL     OW  217   4.837   1.265   1.723
   59SOL    HW1  218   4.789   1.272   1.637
   59SOL    HW2  219   4.761   1.250   1.783
   60SOL     OW  220   1.062   1.806   0.166
   60SOL    HW1  221   1.002   1.757   0.225
   60SOL    HW2  222   1.105   1.734   0.116
   61SOL     OW  223   4.516   0.260   1.446
   61SOL    HW1  224   4.485   0.351   1.457
   61SOL    HW2  225   4.578   0.249   1.521
   62SOL     OW  226   1.614   1.416   0.105
   62SOL    HW1  227   1.570   1.502   0.100
   62SOL    HW2  228   1.542   1.354   0.081
   63SOL     OW  229   0.443   1.752   0.326
   63SOL    HW1  230   0.492   1.803   0.393
   63SOL    HW2  231   0.515   1.702   0.284
   64SOL     OW  232   1.457   0.163   0.431
   64SOL    HW1  233   1.437   0.117   0.348
   64SOL    HW2  234   1.553   0.181   0.423
   65SOL     OW  235   4.531   1.783   1.244
   65SOL    HW1  236   4.575   1.697   1.255
   65SOL    HW2  237   4.493   1.776   1.154
   66SOL     OW  238   0.927   1.722   0.884
   66SOL    HW1  239   1.009   1.669   0.880
   66SOL    HW2  240   0.876   1.681   0.811
   67SOL     OW  241   0.414   0.664   0.519
   67SOL    HW1  242   0.446   0.573   0.538
   67SOL    HW2  243   0.319   0.650   0.508
   68SOL     OW  244   1.532   0.258   1.778
   68SOL    HW1  245   1.535   0.303   1.865
   68SOL    HW2  246   1.493   0.173   1.804
   69SOL     OW  247   0.537   0.102   0.126
   69SOL    HW1  248   0.612   0.046   0.155
   69SOL    HW2  249   0.572   0.144   0.046
   70SOL     OW  250   5.127   0.302   1.734
   70SOL    HW1  251   5.220   0.316   1.756
   70SOL    HW2  252   5.098   0.242   1.805
   71SOL     OW  253   5.185   1.505   1.237
   71SOL    HW1  254   5.162   1.470   1.149
   71SOL    HW2  255   5.242   1.434   1.271
   72SOL     OW  256   1.351   0.598   1.426
   72SOL    HW1  257   1.376   0.563   1.513
   72SOL    HW2  258   1.396   0.684   1.423
   73SOL     OW  259   0.811   1.362   1.001
   73SOL    HW1  260   0.898   1.369   0.956
   73SOL    HW2  261   0.749   1.369   0.927
   74SOL     OW  262   0.956   0.503   0.894
   74SOL    HW1  263   0.925   0.497   0.800
   74SOL    HW2  264   0.974   0.410   0.914
   75SOL     OW  265   0.624   0.073   0.466
   75SOL    HW1  266   0.550   0.050   0.525
   75SOL    HW2  267   0.593   0.156   0.426
   76SOL     OW  268   1.401   1.244   0.043
   76SOL    HW1  269   1.430   1.175   0.106
   76SOL    HW2  270   1.320   1.275   0.087
   77SOL     OW  271   0.273   0.048   0.117
   77SOL    HW1  272   0.368   0.073   0.113
   77SOL    HW2  273   0.269  -0.005   0.199
   78SOL     OW  274   0.951   0.301   0.453
   78SOL    HW1  275   0.922   0.342   0.370
   78SOL    HW2  276   1.048   0.299   0.444
   79SOL     OW  277   1.088   0.711   1.417
   79SOL    HW1  278   1.014   0.648   1.426
   79SOL    HW2  279   1.166   0.653   1.416
   80SOL     OW  280   1.172   1.616   0.838
   80SOL    HW1  281   1.203   1.673   0.765
   80SOL    HW2  282   1.217   1.656   0.914
   81SOL     OW  283   4.809   1.154   0.727
   81SOL    HW1  284   4.744   1.127   0.795
   81SOL    HW2  285   4.754   1.150   0.647
   82SOL     OW  286   1.241   1.806   0.655
   82SOL    HW1  287   1.293   1.862   0.594
   82SOL    HW2  288   1.168   1.866   0.680
   83SOL     OW  289   1.087   0.474   0.043
   83SOL    HW1  290   1.049   0.498  -0.044
   83SOL    HW2  291   1.176   0.514   0.037
   84SOL     OW  292   4.460   0.537   1.433
   84SOL    HW1  293   4.546   0.546   1.386
   84SOL    HW2  294   4.476   0.597   1.508
   85SOL     OW  295   4.938   0.267   1.216
   85SOL    HW1  296   4.972   0.247   1.305
   85SOL    HW2  297   4.842   0.256   1.227
   86SOL     OW  298   0.879   0.487   0.642
   86SOL    HW1  299   0.861   0.552   0.572
   86SOL    HW2  300   0.896   0.408   0.587
   87SOL     OW  301   1.015   0.020   0.802
   87SOL    HW1  302   0.967   0.043   0.720
   87SOL    HW2  303   0.942  -0.011   0.858
   88SOL     OW  304   1.527   1.210   0.800
   88SOL    HW1  305   1.467   1.189   0.726
   88SOL    HW2  306   1.610   1.228   0.752
   89SOL     OW  307   1.443   0.626   0.909
   89SOL    HW1  308   1.394   0.542   0.917
   89SOL    HW2  309   1.497   0.628   0.990
   90SOL     OW  310   1.871   0.819   0.355
   90SOL    HW1  311   1.912   0.777   0.432
   90SOL    HW2  312   1.842   0.742   0.303
   91SOL     OW  313   0.537   1.420   0.132
   91SOL    HW1  314   0.497   1.360   0.198
   91SOL    HW2  315   0.458   1.441   0.079
   92SOL     OW  316   1.757   1.266   0.647
   92SOL    HW1  317   1.838   1.211   0.657
   92SOL    HW2  318   1.795   1.352   0.626
   93SOL     OW  319   1.367   0.535   0.050
   93SOL    HW1  320   1.340   0.535   0.144
   93SOL    HW2  321   1.434   0.464   0.049
   94SOL     OW  322   0.516   0.291   0.327
   94SOL    HW1  323   0.518   0.224   0.256
   94SOL    HW2  324   0.493   0.370   0.274
   95SOL     OW  325   1.715   1.240   1.564
   95SOL    HW1  326   1.808   1.213   1.554
   95SOL    HW2  327   1.727   1.335   1.584
   96SOL     OW  328   1.008   1.304   1.343
   96SOL    HW1  329   0.926   1.282   1.392
   96SOL    HW2  330   1.077   1.263   1.400
   97SOL     OW  331   1.598   1.624   1.688
   97SOL    HW1  332   1.585   1.661   1.599
   97SOL    HW2  333   1.680   1.572   1.674
   98SOL     OW  334   1.170   1.278   1.128
   98SOL    HW1  335   1.103   1.294   1.197
   98SOL    HW2  336   1.123   1.306   1.046
   99SOL     OW  337   1.549   1.083   1.045
   99SOL    HW1  338   1.565   1.161   1.103
   99SOL    HW2  339   1.527   1.126   0.960
  100SOL     OW  340   5.285   0.124   1.397
  100SOL    HW1  341   5.288   0.095   1.304
  100SOL    HW2  342   5.379   0.146   1.414
  101SOL     OW  343   5.305   1.103   1.745
  101SOL    HW1  344   5.213   1.118   1.776
  101SOL    HW2  345   5.294   1.033   1.679
  102SOL     OW  346   0.754   1.072   0.422
  102SOL    HW1  347   0.739   1.030   0.508
  102SOL    HW2  348   0.837   1.028   0.391
  103SOL     OW  349   4.746   0.823   1.274
  103SOL    HW1  350   4.817   0.833   1.339
  103SOL    HW2  351   4.726   0.728   1.283
  104SOL     OW  352   1.306   0.372   1.283
  104SOL    HW1  353   1.326   0.455   1.331
  104SOL    HW2  354   1.216   0.390   1.249
  105SOL     OW  355   4.381   1.525   1.370
  105SOL    HW1  356   4.370   1.607   1.420
  105SOL    HW2  357   4.476   1.530   1.347
  106SOL     OW  358   4.637   1.139   0.511
  106SOL    HW1  359   4.667   1.187   0.431
  106SOL    HW2  360   4.612   1.053   0.472
  107SOL     OW  361   4.868   0.455   0.862
  107SOL    HW1  362   4.872   0.464   0.765
  107SOL    HW2  363   4.931   0.523   0.892
  108SOL     OW  364   1.237   1.364   0.452
  108SOL    HW1  365   1.291   1.437   0.487
  108SOL    HW2  366   1.147   1.392   0.476
  109SOL     OW  367   1.344   1.486   1.124
  109SOL    HW1  368   1.389   1.483   1.211
  109SOL    HW2  369   1.283   1.410   1.130
  110SOL     OW  370   1.503   0.652   0.454
  110SOL    HW1  371   1.492   0.712   0.530
  110SOL    HW2  372   1.456   0.700   0.384
  111SOL     OW  373   4.648   1.525   1.296
  111SOL    HW1  374   4.657   1.467   1.217
  111SOL    HW2  375   4.741   1.550   1.313
  112SOL     OW  376   4.818   0.718   1.645
  112SOL    HW1  377   4.862   0.762   1.569
  112SOL    HW2  378   4.882   0.646   1.664
  113SOL     OW  379   1.583   0.829   1.699
  113SOL    HW1  380   1.493   0.861   1.683
  113SOL    HW2  381   1.633   0.874   1.629
  114SOL     OW  382   5.309   4.305   1.628
  114SOL    HW1  383   5.289   4.357   1.549
  114SOL    HW2  384   5.222   4.302   1.673
  115SOL     OW  385   4.802   4.287   1.676
  115SOL    HW1  386   4.802   4.220   1.604
  115SOL    HW2  387   4.760   4.239   1.750
  116SOL     OW  388   4.979   0.867   1.106
  116SOL    HW1  389   4.997   0.963   1.106
  116SOL    HW2  390   4.890   0.862   1.145
  117SOL     OW  391   1.282   0.816   1.015
  117SOL    HW1  392   1.191   0.808   0.983
  117SOL    HW2  393   1.328   0.750   0.960
  118SOL     OW  394   1.265   0.530   0.294
  118SOL    HW1  395   1.257   0.457   0.357
  118SOL    HW2  396   1.209   0.599   0.334
  119SOL     OW  397   4.669   0.212   1.225
  119SOL    HW1  398   4.611   0.239   1.299
  119SOL    HW2  399   4.692   0.121   1.252
  120SOL     OW  400   4.383   1.278   1.250
  120SOL    HW1  401   4.415   1.219   1.320
  120SOL    HW2  402   4.375   1.364   1.297
  121SOL     OW  403   5.035   0.624   0.998
  121SOL    HW1  404   5.114   0.634   0.944
  121SOL    HW2  405   5.015   0.715   1.027
  122SOL     OW  406   1.752   0.983   1.865
  122SOL    HW1  407   1.691   0.920   1.824
  122SOL    HW2  408   1.697   1.019   1.937
  123SOL     OW  409   4.735   0.066   0.634
  123SOL    HW1  410   4.696   0.150   0.664
  123SOL    HW2  411   4.657   0.015   0.608
  124SOL     OW  412   1.617   0.441   0.319
  124SOL    HW1  413   1.645   0.381   0.390
  124SOL    HW2  414   1.570   0.512   0.367
  125SOL     OW  415   1.020   0.757   0.939
  125SOL    HW1  416   1.000   0.772   1.035
  125SOL    HW2  417   1.002   0.661   0.931
  126SOL     OW  418   5.333   1.604   1.706
  126SOL    HW1  419   5.326   1.625   1.611
  126SOL    HW2  420   5.346   1.507   1.704
  127SOL     OW  421   1.823   1.493   1.591
  127SOL    HW1  422   1.845   1.521   1.501
  127SOL    HW2  423   1.907   1.512   1.636
  128SOL     OW  424   4.736   0.925   1.806
  128SOL    HW1  425   4.802   0.943   1.875
  128SOL    HW2  426   4.775   0.849   1.759
  129SOL     OW  427   1.530   0.305   0.098
  129SOL    HW1  428   1.581   0.222   0.110
  129SOL    HW2  429   1.563   0.357   0.174
  130SOL     OW  430   3.458   2.955   3.061
  130SOL    HW1  431   3.490   2.863   3.072
  130SOL    HW2  432   3.479   2.972   2.968
  131SOL     OW  433   1.059   1.372   0.898
  131SOL    HW1  434   1.075   1.298   0.835
  131SOL    HW2  435   1.107   1.446   0.857
  132SOL     OW  436   4.658   0.803   0.924
  132SOL    HW1  437   4.733   0.798   0.862
  132SOL    HW2  438   4.671   0.723   0.977
  133SOL     OW  439   4.660   0.518   1.024
  133SOL    HW1  440   4.609   0.437   1.005
  133SOL    HW2  441   4.738   0.504   0.966
  134SOL     OW  442   5.486   0.363   1.652
  134SOL    HW1  443   5.436   0.396   1.728
  134SOL    HW2  444   5.569   0.413   1.659
  135SOL     OW  445   1.218   0.182   1.459
  135SOL    HW1  446   1.190   0.238   1.534
  135SOL    HW2  447   1.252   0.249   1.396
  136SOL     OW  448   0.095   1.293   0.113
  136SOL    HW1  449   0.069   1.242   0.034
  136SOL    HW2  450   0.072   1.228   0.184
  137SOL     OW  451   4.441   1.790   0.989
  137SOL    HW1  452   4.381   1.845   0.936
  137SOL    HW2  453   4.526   1.801   0.943
  138SOL     OW  454   4.820   1.560   0.932
  138SOL    HW1  455   4.888   1.628   0.952
  138SOL    HW2  456   4.871   1.497   0.879
  139SOL     OW  457   0.967   0.813   1.192
  139SOL    HW1  458   1.014   0.779   1.270
  139SOL    HW2  459   0.878   0.825   1.227
  140SOL     OW  460   4.440   0.631   1.151
  140SOL    HW1  461   4.520   0.594   1.110
  140SOL    HW2  462   4.426   0.572   1.226
  141SOL     OW  463   4.474   0.452   1.745
  141SOL    HW1  464   4.544   0.404   1.793
  141SOL    HW2  465   4.517   0.536   1.721
  142SOL     OW  466   1.335   0.940   1.627
  142SOL    HW1  467   1.374   1.029   1.632
  142SOL    HW2  468   1.243   0.961   1.606
  143SOL     OW  469   0.860   0.624   0.403
  143SOL    HW1  470   0.853   0.557   0.331
  143SOL    HW2  471   0.776   0.673   0.390
  144SOL     OW  472   1.570   0.695   1.151
  144SOL    HW1  473   1.546   0.639   1.226
  144SOL    HW2  474   1.667   0.683   1.149
  145SOL     OW  475   4.592   1.556   1.708
  145SOL    HW1  476   4.535   1.608   1.766
  145SOL    HW2  477   4.554   1.467   1.715
  146SOL     OW  478   5.119   0.470   1.207
  146SOL    HW1  479   5.055   0.396   1.206
  146SOL    HW2  480   5.087   0.523   1.131
  147SOL     OW  481   5.321   1.650   1.437
  147SOL    HW1  482   5.269   1.604   1.369
  147SOL    HW2  483   5.303   1.743   1.414
  148SOL     OW  484   4.493   1.102   1.431
  148SOL    HW1  485   4.495   1.060   1.519
  148SOL    HW2  486   4.483   1.025   1.372
  149SOL     OW  487   1.264   1.043   1.218
  149SOL    HW1  488   1.187   0.990   1.194
  149SOL    HW2  489   1.242   1.129   1.177
  150SOL     OW  490   1.344   0.827   0.278
  150SOL    HW1  491   1.259   0.806   0.320
  150SOL    HW2  492   1.324   0.816   0.184
  151SOL     OW  493   1.757   1.736   1.148
  151SOL    HW1  494   1.835   1.756   1.092
  151SOL    HW2  495   1.738   1.645   1.120
  152SOL     OW  496   1.272   1.740   1.060
  152SOL    HW1  497   1.358   1.786   1.062
  152SOL    HW2  498   1.295   1.652   1.095
  153SOL     OW  499   4.379   1.181   1.003
  153SOL    HW1  500   4.382   1.220   1.094
  153SOL    HW2  501   4.317   1.241   0.959
  154SOL     OW  502   5.074   1.673   1.770
  154SOL    HW1  503   5.039   1.711   1.688
  154SOL    HW2  504   5.169   1.663   1.750
  155SOL     OW  505   0.877   0.172   0.133
  155SOL    HW1  506   0.967   0.140   0.117
  155SOL    HW2  507   0.833   0.094   0.171
  156SOL     OW  508   1.730   0.214   0.465
  156SOL    HW1  509   1.797   0.219   0.393
  156SOL    HW2  510   1.747   0.123   0.499
  157SOL     OW  511   1.374   1.589   0.543
  157SOL    HW1  512   1.351   1.620   0.453
  157SOL    HW2  513   1.326   1.655   0.596
  158SOL     OW  514   4.444   1.725   1.866
  158SOL    HW1  515   4.405   1.656   1.924
  158SOL    HW2  516   4.510   1.766   1.924
  159SOL     OW  517   1.270   0.951   0.675
  159SOL    HW1  518   1.350   0.895   0.681
  159SOL    HW2  519   1.305   1.029   0.628
  160SOL     OW  520   5.097   1.257   1.453
  160SOL    HW1  521   5.084   1.316   1.530
  160SOL    HW2  522   5.018   1.275   1.399
  161SOL     OW  523   0.666   1.642   0.205
  161SOL    HW1  524   0.670   1.681   0.117
  161SOL    HW2  525   0.629   1.553   0.185
  162SOL     OW  526   1.616   1.712   1.414
  162SOL    HW1  527   1.662   1.720   1.329
  162SOL    HW2  528   1.636   1.799   1.455
  163SOL     OW  529   1.821   0.208   1.021
  163SOL    HW1  530   1.839   0.128   0.968
  163SOL    HW2  531   1.752   0.251   0.968
  164SOL     OW  532   4.619   0.292   0.724
  164SOL    HW1  533   4.531   0.325   0.698
  164SOL    HW2  534   4.610   0.290   0.821
  165SOL     OW  535   1.217   1.599   0.058
  165SOL    HW1  536   1.204   1.506   0.088
  165SOL    HW2  537   1.196   1.592  -0.037
  166SOL     OW  538   5.143   1.009   1.369
  166SOL    HW1  539   5.138   1.037   1.276
  166SOL    HW2  540   5.127   1.095   1.414
  167SOL     OW  541   0.978   0.957   0.329
  167SOL    HW1  542   1.003   0.957   0.234
  167SOL    HW2  543   1.027   0.881   0.362
  168SOL     OW  544   1.487   1.671   0.081
  168SOL    HW1  545   1.394   1.644   0.074
  168SOL    HW2  546   1.507   1.692  -0.013
  169SOL     OW  547   4.684   1.295   1.499
  169SOL    HW1  548   4.668   1.370   1.441
  169SOL    HW2  549   4.623   1.227   1.466
  170SOL     OW  550   1.606   1.294   1.209
  170SOL    HW1  551   1.694   1.286   1.251
  170SOL    HW2  552   1.557   1.349   1.273
  171SOL     OW  553   1.082   1.139   0.766
  171SOL    HW1  554   1.005   1.088   0.795
  171SOL    HW2  555   1.142   1.070   0.732
  172SOL     OW  556   1.059   0.242   0.970
  172SOL    HW1  557   1.056   0.182   0.893
  172SOL    HW2  558   1.038   0.179   1.041
  173SOL     OW  559   0.608   1.489   0.551
  173SOL    HW1  560   0.649   1.439   0.479
  173SOL    HW2  561   0.513   1.483   0.532
  174SOL     OW  562   1.870   0.330   1.499
  174SOL    HW1  563   1.904   0.415   1.466
  174SOL    HW2  564   1.846   0.284   1.416
  175SOL     OW  565   0.348   1.309   0.299
  175SOL    HW1  566   0.267   1.315   0.247
  175SOL    HW2  567   0.338   1.378   0.367
  176SOL     OW  568   4.508   0.981   1.679
  176SOL    HW1  569   4.463   1.046   1.735
  176SOL    HW2  570   4.593   0.970   1.726
  177SOL     OW  571   5.061   0.259   1.469
  177SOL    HW1  572   5.140   0.211   1.439
  177SOL    HW2  573   5.080   0.269   1.564
  178SOL     OW  574   6.469   2.498   3.026
  178SOL    HW1  575   6.495   2.491   2.932
  178SOL    HW2  576   6.517   2.578   3.054
  179SOL     OW  577   1.465   0.856   1.394
  179SOL    HW1  578   1.407   0.888   1.465
  179SOL    HW2  579   1.551   0.892   1.423
  180SOL     OW  580   4.413   0.205   0.442
  180SOL    HW1  581   4.466   0.236   0.366
  180SOL    HW2  582   4.463   0.127   0.474
  181SOL     OW  583   1.188   1.356   0.174
  181SOL    HW1  584   1.091   1.344   0.169
  181SOL    HW2  585   1.205   1.346   0.270
  182SOL     OW  586   4.965   0.815   1.437
  182SOL    HW1  587   5.019   0.894   1.419
  182SOL    HW2  588   5.032   0.745   1.432
  183SOL     OW  589   1.518   1.857   1.063
  183SOL    HW1  590   1.551   1.911   0.990
  183SOL    HW2  591   1.599   1.817   1.098
  184SOL     OW  592   5.040   0.555   1.673
  184SOL    HW1  593   5.104   0.607   1.725
  184SOL    HW2  594   5.059   0.463   1.702
  185SOL     OW  595   1.448   1.182   1.624
  185SOL    HW1  596   1.438   1.214   1.716
  185SOL    HW2  597   1.538   1.213   1.603
  186SOL     OW  598   4.713   1.776   1.612
  186SOL    HW1  599   4.625   1.818   1.599
  186SOL    HW2  600   4.685   1.687   1.641
  187SOL     OW  601   1.227   0.309   0.445
  187SOL    HW1  602   1.306   0.252   0.449
  187SOL    HW2  603   1.233   0.356   0.531
  188SOL     OW  604   4.853   0.777   0.742
  188SOL    HW1  605   4.920   0.840   0.710
  188SOL    HW2  606   4.817   0.742   0.658
  189SOL     OW  607   1.690   0.972   1.491
  189SOL    HW1  608   1.687   1.066   1.516
  189SOL    HW2  609   1.783   0.962   1.465
  190SOL     OW  610   0.916   1.355   0.155
  190SOL    HW1  611   0.860   1.358   0.235
  190SOL    HW2  612   0.854   1.321   0.090
  191SOL     OW  613   4.992   1.760   0.961
  191SOL    HW1  614   4.969   1.854   0.958
  191SOL    HW2  615   5.088   1.760   0.950
  192SOL     OW  616   0.877   0.992   0.883
  192SOL    HW1  617   0.923   0.908   0.900
  192SOL    HW2  618   0.838   1.013   0.968
  193SOL     OW  619   1.060   0.926   0.072
  193SOL    HW1  620   0.995   0.918  -0.000
  193SOL    HW2  621   1.136   0.875   0.038
  194SOL     OW  622   1.852   1.563   0.796
  194SOL    HW1  623   1.769   1.582   0.748
  194SOL    HW2  624   1.818   1.519   0.876
  195SOL     OW  625   4.624   1.266   1.884
  195SOL    HW1  626   4.543   1.286   1.834
  195SOL    HW2  627   4.597   1.276   1.976
  196SOL     OW  628   4.429   1.325   0.574
  196SOL    HW1  629   4.350   1.281   0.611
  196SOL    HW2  630   4.485   1.248   0.551
  197SOL     OW  631   5.047   1.419   1.658
  197SOL    HW1  632   4.965   1.375   1.687
  197SOL    HW2  633   5.042   1.505   1.702
  198SOL     OW  634   1.804   0.176   1.289
  198SOL    HW1  635   1.717   0.133   1.289
  198SOL    HW2  636   1.817   0.192   1.194
  199SOL     OW  637   0.488   0.414   0.580
  199SOL    HW1  638   0.504   0.365   0.497
  199SOL    HW2  639   0.419   0.361   0.624
  200SOL     OW  640   1.716   1.491   1.035
  200SOL    HW1  641   1.634   1.490   0.982
  200SOL    HW2  642   1.699   1.417   1.095
  201SOL     OW  643   4.696   0.558   1.302
  201SOL    HW1  644   4.749   0.499   1.359
  201SOL    HW2  645   4.712   0.522   1.213
  202SOL     OW  646   0.814   1.637   0.655
  202SOL    HW1  647   0.808   1.722   0.608
  202SOL    HW2  648   0.734   1.590   0.623
  203SOL     OW  649   1.464   0.256   1.089
  203SOL    HW1  650   1.494   0.169   1.120
  203SOL    HW2  651   1.417   0.290   1.167
  204SOL     OW  652   0.979   0.038   1.137
  204SOL    HW1  653   0.900   0.019   1.082
  204SOL    HW2  654   1.016  -0.052   1.148
  205SOL     OW  655   0.775   1.339   0.391
  205SOL    HW1  656   0.764   1.242   0.403
  205SOL    HW2  657   0.856   1.358   0.441
  206SOL     OW  658   4.927   1.561   1.330
  206SOL    HW1  659   4.940   1.624   1.403
  206SOL    HW2  660   5.017   1.559   1.292
  207SOL     OW  661   1.356   0.046   0.194
  207SOL    HW1  662   1.401   0.062   0.110
  207SOL    HW2  663   1.277   0.103   0.186
  208SOL     OW  664   1.252   0.463   0.667
  208SOL    HW1  665   1.208   0.550   0.670
  208SOL    HW2  666   1.255   0.439   0.761
  209SOL     OW  667   1.626   0.312   0.857
  209SOL    HW1  668   1.559   0.303   0.928
  209SOL    HW2  669   1.582   0.372   0.794
  210SOL     OW  670   4.367   1.100   0.291
  210SOL    HW1  671   4.453   1.053   0.288
  210SOL    HW2  672   4.305   1.029   0.313
  211SOL     OW  673   0.897   1.686   0.341
  211SOL    HW1  674   0.812   1.662   0.298
  211SOL    HW2  675   0.870   1.756   0.403
  212SOL     OW  676   4.526   0.709   2.024
  212SOL    HW1  677   4.522   0.628   2.078
  212SOL    HW2  678   4.449   0.699   1.967
  213SOL     OW  679   4.550   0.254   2.850
  213SOL    HW1  680   4.545   0.223   2.943
  213SOL    HW2  681   4.477   0.205   2.809
  214SOL     OW  682   4.363   0.404   2.570
  214SOL    HW1  683   4.329   0.453   2.648
  214SOL    HW2  684   4.283   0.404   2.514
  215SOL     OW  685   4.918   1.288   3.053
  215SOL    HW1  686   4.832   1.306   3.011
  215SOL    HW2  687   4.939   1.375   3.089
  216SOL     OW  688   5.925   1.510   2.549
  216SOL    HW1  689   5.881   1.466   2.624
  216SOL    HW2  690   5.851   1.521   2.486
  217SOL     OW  691   5.463   0.699   2.534
  217SOL    HW1  692   5.513   0.779   2.509
  217SOL    HW2  693   5.422   0.725   2.618
  218SOL     OW  694   1.827   0.592   2.055
  218SOL    HW1  695   1.765   0.609   1.981
  218SOL    HW2  696   1.773   0.535   2.114
  219SOL     OW  697   5.075   1.121   2.899
  219SOL    HW1  698   5.014   1.157   2.967
  219SOL    HW2  699   5.117   1.204   2.871
  220SOL     OW  700   5.005   0.957   2.516
  220SOL    HW1  701   5.081   0.971   2.575
  220SOL    HW2  702   4.946   1.031   2.539
  221SOL     OW  703   4.688   1.394   2.943
  221SOL    HW1  704   4.594   1.381   2.921
  221SOL    HW2  705   4.721   1.453   2.872
  222SOL     OW  706   3.631   3.689   0.112
  222SOL    HW1  707   3.703   3.751   0.136
  222SOL    HW2  708   3.558   3.720   0.168
  223SOL     OW  709   5.891   0.505   2.573
  223SOL    HW1  710   5.803   0.481   2.539
  223SOL    HW2  711   5.885   0.602   2.569
  224SOL     OW  712   4.609   1.710   2.338
  224SOL    HW1  713   4.624   1.792   2.389
  224SOL    HW2  714   4.676   1.719   2.268
  225SOL     OW  715   4.681   1.455   2.382
  225SOL    HW1  716   4.656   1.550   2.376
  225SOL    HW2  717   4.610   1.420   2.438
  226SOL     OW  718   4.594   1.060   2.678
  226SOL    HW1  719   4.619   0.976   2.722
  226SOL    HW2  720   4.528   1.096   2.740
  227SOL     OW  721   2.770   3.981   0.176
  227SOL    HW1  722   2.767   3.941   0.264
  227SOL    HW2  723   2.795   4.072   0.199
  228SOL     OW  724   4.910   0.976   2.022
  228SOL    HW1  725   4.965   1.030   1.962
  228SOL    HW2  726   4.946   1.003   2.109
  229SOL     OW  727   3.718   2.170   0.381
  229SOL    HW1  728   3.704   2.262   0.348
  229SOL    HW2  729   3.808   2.152   0.352
  230SOL     OW  730   4.480   0.609   2.430
  230SOL    HW1  731   4.444   0.533   2.478
  230SOL    HW2  732   4.457   0.681   2.490
  231SOL     OW  733   1.852   1.724   2.198
  231SOL    HW1  734   1.934   1.720   2.251
  231SOL    HW2  735   1.851   1.818   2.173
  232SOL     OW  736   4.352   1.532   2.025
  232SOL    HW1  737   4.334   1.437   2.035
  232SOL    HW2  738   4.353   1.559   2.119
  233SOL     OW  739   6.043   0.955   2.529
  233SOL    HW1  740   6.136   0.927   2.523
  233SOL    HW2  741   6.031   1.010   2.451
  234SOL     OW  742   1.676   1.119   2.300
  234SOL    HW1  743   1.759   1.104   2.251
  234SOL    HW2  744   1.703   1.193   2.359
  235SOL     OW  745   4.976   1.363   2.652
  235SOL    HW1  746   4.924   1.283   2.630
  235SOL    HW2  747   4.980   1.407   2.565
  236SOL     OW  748   3.459   3.403   0.172
  236SOL    HW1  749   3.444   3.320   0.124
  236SOL    HW2  750   3.554   3.415   0.158
  237SOL     OW  751   5.208   0.080   2.456
  237SOL    HW1  752   5.237   0.154   2.400
  237SOL    HW2  753   5.120   0.060   2.422
  238SOL     OW  754   2.357   3.119   0.070
  238SOL    HW1  755   2.425   3.064   0.029
  238SOL    HW2  756   2.276   3.066   0.060
  239SOL     OW  757   1.555   1.064   2.056
  239SOL    HW1  758   1.483   1.003   2.086
  239SOL    HW2  759   1.594   1.088   2.142
  240SOL     OW  760   5.825   1.378   2.768
  240SOL    HW1  761   5.754   1.407   2.829
  240SOL    HW2  762   5.795   1.288   2.746
  241SOL     OW  763   5.948   1.854   2.401
  241SOL    HW1  764   5.940   1.787   2.330
  241SOL    HW2  765   5.969   1.800   2.478
  242SOL     OW  766   4.898   0.700   2.138
  242SOL    HW1  767   4.900   0.788   2.098
  242SOL    HW2  768   4.841   0.713   2.217
  243SOL     OW  769   5.606   0.423   2.791
  243SOL    HW1  770   5.519   0.383   2.810
  243SOL    HW2  771   5.664   0.367   2.845
  244SOL     OW  772   1.585   1.671   2.197
  244SOL    HW1  773   1.683   1.674   2.189
  244SOL    HW2  774   1.558   1.660   2.104
  245SOL     OW  775   2.992   2.609   0.237
  245SOL    HW1  776   2.961   2.587   0.326
  245SOL    HW2  777   2.914   2.590   0.182
  246SOL     OW  778   3.210   2.571   0.071
  246SOL    HW1  779   3.143   2.586   0.141
  246SOL    HW2  780   3.162   2.596  -0.009
  247SOL     OW  781   5.360   0.672   2.279
  247SOL    HW1  782   5.386   0.671   2.373
  247SOL    HW2  783   5.270   0.634   2.282
  248SOL     OW  784   4.427   0.748   2.671
  248SOL    HW1  785   4.516   0.765   2.708
  248SOL    HW2  786   4.374   0.811   2.724
  249SOL     OW  787   5.178   0.353   2.067
  249SOL    HW1  788   5.230   0.395   1.995
  249SOL    HW2  789   5.147   0.271   2.024
  250SOL     OW  790   5.733   1.148   2.417
  250SOL    HW1  791   5.819   1.152   2.372
  250SOL    HW2  792   5.680   1.213   2.366
  251SOL     OW  793   4.931   0.251   2.779
  251SOL    HW1  794   4.883   0.240   2.863
  251SOL    HW2  795   4.904   0.340   2.750
  252SOL     OW  796   5.339   1.451   2.337
  252SOL    HW1  797   5.316   1.524   2.277
  252SOL    HW2  798   5.319   1.489   2.423
  253SOL     OW  799   4.717   1.805   2.730
  253SOL    HW1  800   4.752   1.715   2.741
  253SOL    HW2  801   4.795   1.860   2.746
  254SOL     OW  802   6.136   1.058   2.772
  254SOL    HW1  803   6.087   1.044   2.689
  254SOL    HW2  804   6.063   1.058   2.838
  255SOL     OW  805   3.406   3.741   0.267
  255SOL    HW1  806   3.443   3.677   0.331
  255SOL    HW2  807   3.339   3.686   0.221
  256SOL     OW  808   4.635   0.938   2.123
  256SOL    HW1  809   4.711   0.955   2.065
  256SOL    HW2  810   4.600   0.854   2.085
  257SOL     OW  811   5.838   0.782   2.570
  257SOL    HW1  812   5.816   0.763   2.663
  257SOL    HW2  813   5.910   0.847   2.576
  258SOL     OW  814   5.498   1.773   2.091
  258SOL    HW1  815   5.416   1.740   2.132
  258SOL    HW2  816   5.512   1.708   2.020
  259SOL     OW  817   1.639   1.390   1.953
  259SOL    HW1  818   1.604   1.480   1.948
  259SOL    HW2  819   1.563   1.337   1.924
  260SOL     OW  820   4.827   1.736   2.173
  260SOL    HW1  821   4.878   1.792   2.235
  260SOL    HW2  822   4.897   1.684   2.130
  261SOL     OW  823   5.778   0.174   2.250
  261SOL    HW1  824   5.834   0.112   2.201
  261SOL    HW2  825   5.798   0.152   2.342
  262SOL     OW  826   2.381   3.933   0.090
  262SOL    HW1  827   2.446   3.859   0.093
  262SOL    HW2  828   2.360   3.937  -0.006
  263SOL     OW  829   5.311   1.715   2.762
  263SOL    HW1  830   5.402   1.686   2.784
  263SOL    HW2  831   5.287   1.654   2.689
  264SOL     OW  832   4.742   0.666   2.361
  264SOL    HW1  833   4.767   0.572   2.372
  264SOL    HW2  834   4.646   0.661   2.375
  265SOL     OW  835   5.076   0.128   1.949
  265SOL    HW1  836   5.078   0.061   2.021
  265SOL    HW2  837   5.070   0.067   1.873
  266SOL     OW  838   5.220   1.529   3.062
  266SOL    HW1  839   5.210   1.480   2.978
  266SOL    HW2  840   5.293   1.482   3.106
  267SOL     OW  841   3.527   2.787   0.211
  267SOL    HW1  842   3.602   2.763   0.269
  267SOL    HW2  843   3.542   2.883   0.200
  268SOL     OW  844   5.184   1.367   2.836
  268SOL    HW1  845   5.262   1.362   2.776
  268SOL    HW2  846   5.111   1.378   2.772
  269SOL     OW  847   5.258   0.521   2.762
  269SOL    HW1  848   5.235   0.507   2.667
  269SOL    HW2  849   5.296   0.434   2.785
  270SOL     OW  850   4.956   0.035   2.358
  270SOL    HW1  851   4.886   0.028   2.425
  270SOL    HW2  852   4.922   0.105   2.299
  271SOL     OW  853   1.418   1.235   1.890
  271SOL    HW1  854   1.459   1.171   1.951
  271SOL    HW2  855   1.335   1.257   1.935
  272SOL     OW  856   4.697   0.083   2.046
  272SOL    HW1  857   4.771   0.124   2.094
  272SOL    HW2  858   4.636   0.063   2.119
  273SOL     OW  859   5.295   0.293   2.311
  273SOL    HW1  860   5.258   0.315   2.224
  273SOL    HW2  861   5.390   0.307   2.297
  274SOL     OW  862   3.269   2.881   0.216
  274SOL    HW1  863   3.268   2.913   0.307
  274SOL    HW2  864   3.353   2.834   0.211
  275SOL     OW  865   5.516   1.561   2.596
  275SOL    HW1  866   5.534   1.629   2.530
  275SOL    HW2  867   5.555   1.601   2.676
  276SOL     OW  868   4.821   1.155   2.557
  276SOL    HW1  869   4.742   1.127   2.606
  276SOL    HW2  870   4.787   1.152   2.465
  277SOL     OW  871   5.571   1.790   2.454
  277SOL    HW1  872   5.616   1.860   2.402
  277SOL    HW2  873   5.510   1.844   2.507
  278SOL     OW  874   5.339   0.467   1.866
  278SOL    HW1  875   5.307   0.555   1.836
  278SOL    HW2  876   5.396   0.492   1.942
  279SOL     OW  877   2.288   2.670   0.208
  279SOL    HW1  878   2.381   2.695   0.214
  279SOL    HW2  879   2.266   2.643   0.299
  280SOL     OW  880   4.825   0.210   3.027
  280SOL    HW1  881   4.853   0.124   3.063
  280SOL    HW2  882   4.731   0.213   3.051
  281SOL     OW  883   5.200   0.472   2.502
  281SOL    HW1  884   5.144   0.515   2.435
  281SOL    HW2  885   5.237   0.398   2.450
  282SOL     OW  886   5.320   0.057   2.693
  282SOL    HW1  887   5.280   0.067   2.604
  282SOL    HW2  888   5.382  -0.015   2.678
  283SOL     OW  889   5.741   1.124   2.712
  283SOL    HW1  890   5.679   1.053   2.736
  283SOL    HW2  891   5.729   1.130   2.616
  284SOL     OW  892   5.754   0.677   2.815
  284SOL    HW1  893   5.705   0.593   2.812
  284SOL    HW2  894   5.821   0.660   2.884
  285SOL     OW  895   1.844   0.803   2.229
  285SOL    HW1  896   1.904   0.765   2.297
  285SOL    HW2  897   1.843   0.733   2.161
  286SOL     OW  898   4.830   1.434   2.005
  286SOL    HW1  899   4.769   1.401   2.073
  286SOL    HW2  900   4.787   1.400   1.925
  287SOL     OW  901   1.764   1.298   2.469
  287SOL    HW1  902   1.855   1.302   2.504
  287SOL    HW2  903   1.724   1.380   2.502
  288SOL     OW  904   5.687   0.566   1.918
  288SOL    HW1  905   5.613   0.554   1.981
  288SOL    HW2  906   5.755   0.510   1.960
  289SOL     OW  907   4.888   0.233   2.174
  289SOL    HW1  908   4.962   0.227   2.113
  289SOL    HW2  909   4.847   0.319   2.148
  290SOL     OW  910   3.237   3.558   0.159
  290SOL    HW1  911   3.162   3.513   0.203
  290SOL    HW2  912   3.309   3.492   0.165
  291SOL     OW  913   5.449   1.238   2.949
  291SOL    HW1  914   5.357   1.255   2.972
  291SOL    HW2  915   5.450   1.266   2.855
  292SOL     OW  916   5.912   1.071   2.930
  292SOL    HW1  917   5.889   1.140   2.996
  292SOL    HW2  918   5.847   1.089   2.860
  293SOL     OW  919   3.115   2.263   0.235
  293SOL    HW1  920   3.114   2.259   0.137
  293SOL    HW2  921   3.203   2.301   0.251
  294SOL     OW  922   5.045   1.039   2.255
  294SOL    HW1  923   5.024   1.003   2.343
  294SOL    HW2  924   5.129   0.994   2.235
  295SOL     OW  925   4.753   0.808   3.054
  295SOL    HW1  926   4.806   0.857   3.120
  295SOL    HW2  927   4.738   0.724   3.101
  296SOL     OW  928   3.473   2.547   0.102
  296SOL    HW1  929   3.495   2.636   0.137
  296SOL    HW2  930   3.377   2.558   0.084
  297SOL     OW  931   2.206   3.714   0.142
  297SOL    HW1  932   2.261   3.794   0.133
  297SOL    HW2  933   2.247   3.669   0.216
  298SOL     OW  934   4.709   1.125   2.312
  298SOL    HW1  935   4.678   1.196   2.253
  298SOL    HW2  936   4.690   1.046   2.260
  299SOL     OW  937   4.857   0.521   2.763
  299SOL    HW1  938   4.856   0.588   2.692
  299SOL    HW2  939   4.934   0.549   2.815
  300SOL     OW  940   5.584   1.348   2.266
  300SOL    HW1  941   5.638   1.423   2.298
  300SOL    HW2  942   5.496   1.372   2.302
  301SOL     OW  943   5.643   1.450   2.958
  301SOL    HW1  944   5.694   1.468   3.039
  301SOL    HW2  945   5.583   1.379   2.985
  302SOL     OW  946   5.942   0.681   2.328
  302SOL    HW1  947   5.895   0.728   2.398
  302SOL    HW2  948   6.006   0.746   2.296
  303SOL     OW  949   2.529   3.702   0.107
  303SOL    HW1  950   2.521   3.648   0.027
  303SOL    HW2  951   2.627   3.711   0.114
  304SOL     OW  952   5.002   0.853   2.912
  304SOL    HW1  953   5.030   0.946   2.910
  304SOL    HW2  954   4.915   0.858   2.954
  305SOL     OW  955   5.604   0.902   2.815
  305SOL    HW1  956   5.516   0.864   2.802
  305SOL    HW2  957   5.660   0.822   2.818
  306SOL     OW  958   5.484   0.525   2.090
  306SOL    HW1  959   5.516   0.458   2.154
  306SOL    HW2  960   5.442   0.588   2.152
  307SOL     OW  961   2.402   2.364   0.056
  307SOL    HW1  962   2.325   2.392   0.109
  307SOL    HW2  963   2.419   2.276   0.094
  308SOL     OW  964   4.408   1.356   2.997
  308SOL    HW1  965   4.421   1.292   3.070
  308SOL    HW2  966   4.381   1.434   3.047
  309SOL     OW  967   5.062   0.593   2.933
  309SOL    HW1  968   5.135   0.571   2.871
  309SOL    HW2  969   5.049   0.689   2.917
  310SOL     OW  970   4.747   0.047   2.541
  310SOL    HW1  971   4.721   0.139   2.560
  310SOL    HW2  972   4.660   0.006   2.526
  311SOL     OW  973   1.674   0.443   2.218
  311SOL    HW1  974   1.707   0.382   2.287
  311SOL    HW2  975   1.644   0.521   2.271
  312SOL     OW  976   5.359   0.772   2.796
  312SOL    HW1  977   5.344   0.788   2.891
  312SOL    HW2  978   5.326   0.681   2.786
  313SOL     OW  979   1.503   0.356   2.033
  313SOL    HW1  980   1.461   0.294   2.095
  313SOL    HW2  981   1.571   0.395   2.091
  314SOL     OW  982   5.608   0.825   1.882
  314SOL    HW1  983   5.646   0.736   1.888
  314SOL    HW2  984   5.638   0.856   1.795
  315SOL     OW  985   5.412   1.333   2.697
  315SOL    HW1  986   5.422   1.259   2.634
  315SOL    HW2  987   5.454   1.408   2.649
  316SOL     OW  988   4.666   0.819   2.785
  316SOL    HW1  989   4.741   0.790   2.729
  316SOL    HW2  990   4.700   0.808   2.875
  317SOL     OW  991   4.663   0.483   2.947
  317SOL    HW1  992   4.624   0.400   2.911
  317SOL    HW2  993   4.729   0.504   2.878
  318SOL     OW  994   3.363   2.357   0.277
  318SOL    HW1  995   3.389   2.410   0.354
  318SOL    HW2  996   3.397   2.413   0.205
  319SOL     OW  997   4.312   1.272   2.116
  319SOL    HW1  998   4.217   1.284   2.132
  319SOL    HW2  999   4.325   1.178   2.139
  320SOL     OW 1000   4.493   1.801   2.890
  320SOL    HW1 1001   4.424   1.846   2.840
  320SOL    HW2 1002   4.568   1.801   2.828
  321SOL     OW 1003   4.835   1.561   2.779
  321SOL    HW1 1004   4.911   1.617   2.806
  321SOL    HW2 1005   4.881   1.488   2.733
  322SOL     OW 1006   5.309   0.808   3.057
  322SOL    HW1 1007   5.366   0.778   3.131
  322SOL    HW2 1008   5.222   0.802   3.099
  323SOL     OW 1009   4.404   0.545   3.002
  323SOL    HW1 1010   4.498   0.532   2.985
  323SOL    HW2 1011   4.399   0.533   3.099
  324SOL     OW 1012   5.112   0.561   2.248
  324SOL    HW1 1013   5.120   0.489   2.183
  324SOL    HW2 1014   5.037   0.613   2.212
  325SOL     OW 1015   5.949   0.633   3.002
  325SOL    HW1 1016   5.949   0.562   3.069
  325SOL    HW2 1017   6.044   0.632   2.976
  326SOL     OW 1018   2.786   2.591   0.062
  326SOL    HW1 1019   2.745   2.511   0.023
  326SOL    HW2 1020   2.820   2.637  -0.017
  327SOL     OW 1021   3.072   3.874   0.217
  327SOL    HW1 1022   3.065   3.827   0.132
  327SOL    HW2 1023   3.065   3.967   0.192
  328SOL     OW 1024   4.771   0.458   2.081
  328SOL    HW1 1025   4.815   0.545   2.090
  328SOL    HW2 1026   4.684   0.476   2.123
  329SOL     OW 1027   2.282   3.361   0.150
  329SOL    HW1 1028   2.222   3.330   0.221
  329SOL    HW2 1029   2.318   3.276   0.118
  330SOL     OW 1030   5.595   1.035   3.056
  330SOL    HW1 1031   5.607   0.978   2.977
  330SOL    HW2 1032   5.541   1.106   3.018
  331SOL     OW 1033   5.679   0.914   2.136
  331SOL    HW1 1034   5.615   0.886   2.202
  331SOL    HW2 1035   5.643   0.878   2.053
  332SOL     OW 1036   6.063   1.727   2.987
  332SOL    HW1 1037   6.143   1.760   2.944
  332SOL    HW2 1038   6.064   1.633   2.962
  333SOL     OW 1039   5.582   1.682   2.830
  333SOL    HW1 1040   5.661   1.738   2.845
  333SOL    HW2 1041   5.604   1.603   2.883
  334SOL     OW 1042   4.376   1.160   2.810
  334SOL    HW1 1043   4.381   1.233   2.874
  334SOL    HW2 1044   4.307   1.191   2.748
  335SOL     OW 1045   1.796   0.253   2.382
  335SOL    HW1 1046   1.816   0.200   2.303
  335SOL    HW2 1047   1.834   0.198   2.453
  336SOL     OW 1048   5.726   1.567   2.358
  336SOL    HW1 1049   5.791   1.604   2.295
  336SOL    HW2 1050   5.672   1.645   2.380
  337SOL     OW 1051   5.615   0.912   2.470
  337SOL    HW1 1052   5.695   0.864   2.499
  337SOL    HW2 1053   5.654   0.997   2.441
  338SOL     OW 1054   3.005   3.453   0.257
  338SOL    HW1 1055   2.966   3.412   0.337
  338SOL    HW2 1056   2.937   3.516   0.233
  339SOL     OW 1057   5.033   1.606   2.031
  339SOL    HW1 1058   5.040   1.639   1.938
  339SOL    HW2 1059   4.962   1.539   2.022
  340SOL     OW 1060   3.831   3.861   0.198
  340SOL    HW1 1061   3.867   3.879   0.110
  340SOL    HW2 1062   3.841   3.947   0.243
  341SOL     OW 1063   6.164   0.194   2.834
  341SOL    HW1 1064   6.202   0.154   2.754
  341SOL    HW2 1065   6.081   0.231   2.798
  342SOL     OW 1066   4.632   0.295   2.590
  342SOL    HW1 1067   4.548   0.338   2.567
  342SOL    HW2 1068   4.623   0.285   2.686
  343SOL     OW 1069   5.548   1.591   1.895
  343SOL    HW1 1070   5.530   1.501   1.926
  343SOL    HW2 1071   5.480   1.605   1.827
  344SOL     OW 1072   2.993   3.208   0.131
  344SOL    HW1 1073   3.077   3.188   0.089
  344SOL    HW2 1074   3.007   3.296   0.170
  345SOL     OW 1075   5.271   0.915   2.192
  345SOL    HW1 1076   5.299   0.915   2.098
  345SOL    HW2 1077   5.308   0.831   2.224
  346SOL     OW 1078   1.489   1.649   1.936
  346SOL    HW1 1079   1.395   1.628   1.916
  346SOL    HW2 1080   1.528   1.649   1.846
  347SOL     OW 1081   2.409   3.545   0.299
  347SOL    HW1 1082   2.460   3.601   0.239
  347SOL    HW2 1083   2.370   3.479   0.238
  348SOL     OW 1084   3.716   3.436   0.058
  348SOL    HW1 1085   3.814   3.438   0.061
  348SOL    HW2 1086   3.695   3.529   0.076
  349SOL     OW 1087   5.421   1.104   2.557
  349SOL    HW1 1088   5.343   1.060   2.595
  349SOL    HW2 1089   5.471   1.031   2.518
  350SOL     OW 1090   5.369   0.280   2.844
  350SOL    HW1 1091   5.355   0.208   2.780
  350SOL    HW2 1092   5.352   0.233   2.927
  351SOL     OW 1093   4.964   1.482   2.407
  351SOL    HW1 1094   5.002   1.425   2.337
  351SOL    HW2 1095   4.868   1.473   2.391
  352SOL     OW 1096   3.856   2.599   0.127
  352SOL    HW1 1097   3.946   2.634   0.140
  352SOL    HW2 1098   3.875   2.508   0.097
  353SOL     OW 1099   4.592   1.326   2.154
  353SOL    HW1 1100   4.494   1.325   2.154
  353SOL    HW2 1101   4.612   1.383   2.230
  354SOL     OW 1102   2.859   2.311   0.295
  354SOL    HW1 1103   2.952   2.295   0.268
  354SOL    HW2 1104   2.872   2.386   0.357
  355SOL     OW 1105   4.210   0.457   1.759
  355SOL    HW1 1106   4.204   0.514   1.839
  355SOL    HW2 1107   4.307   0.444   1.755
  356SOL     OW 1108   3.562   3.056   0.198
  356SOL    HW1 1109   3.509   3.106   0.133
  356SOL    HW2 1110   3.653   3.066   0.162
  357SOL     OW 1111   4.383   0.212   2.156
  357SOL    HW1 1112   4.363   0.172   2.070
  357SOL    HW2 1113   4.445   0.147   2.194
  358SOL     OW 1114   5.491   1.337   1.994
  358SOL    HW1 1115   5.394   1.330   2.003
  358SOL    HW2 1116   5.520   1.333   2.087
  359SOL     OW 1117   2.767   3.072   0.170
  359SOL    HW1 1118   2.839   3.136   0.154
  359SOL    HW2 1119   2.820   2.989   0.169
  360SOL     OW 1120   5.829   1.816   2.870
  360SOL    HW1 1121   5.858   1.894   2.819
  360SOL    HW2 1122   5.913   1.775   2.896
  361SOL     OW 1123   3.804   3.050   0.067
  361SOL    HW1 1124   3.800   2.965   0.021
  361SOL    HW2 1125   3.795   3.113  -0.007
  362SOL     OW 1126   5.564   0.349   2.282
  362SOL    HW1 1127   5.636   0.283   2.271
  362SOL    HW2 1128   5.587   0.390   2.367
  363SOL     OW 1129   4.855   0.741   2.599
  363SOL    HW1 1130   4.917   0.812   2.573
  363SOL    HW2 1131   4.816   0.719   2.512
  364SOL     OW 1132   3.976   3.067   0.293
  364SOL    HW1 1133   3.952   3.156   0.328
  364SOL    HW2 1134   3.929   3.067   0.207
  365SOL     OW 1135   5.202   1.361   1.999
  365SOL    HW1 1136   5.163   1.338   2.086
  365SOL    HW2 1137   5.170   1.451   1.987
  366SOL     OW 1138   5.037   1.733   2.821
  366SOL    HW1 1139   5.018   1.823   2.790
  366SOL    HW2 1140   5.134   1.727   2.811
  367SOL     OW 1141   5.212   0.987   2.694
  367SOL    HW1 1142   5.255   0.910   2.735
  367SOL    HW2 1143   5.167   1.028   2.770
  368SOL     OW 1144   5.357   0.908   1.935
  368SOL    HW1 1145   5.348   0.989   1.883
  368SOL    HW2 1146   5.450   0.883   1.919
  369SOL     OW 1147   6.144   1.612   2.675
  369SOL    HW1 1148   6.071   1.586   2.616
  369SOL    HW2 1149   6.126   1.555   2.752
  370SOL     OW 1150   4.429   1.362   2.472
  370SOL    HW1 1151   4.354   1.362   2.532
  370SOL    HW2 1152   4.437   1.267   2.453
  371SOL     OW 1153   3.926   2.348   0.035
  371SOL    HW1 1154   3.865   2.274   0.027
  371SOL    HW2 1155   3.960   2.354  -0.057
  372SOL     OW 1156   4.795   0.408   2.401
  372SOL    HW1 1157   4.841   0.334   2.360
  372SOL    HW2 1158   4.746   0.366   2.474
  373SOL     OW 1159   6.053   1.471   2.890
  373SOL    HW1 1160   5.973   1.431   2.850
  373SOL    HW2 1161   6.083   1.401   2.950
  374SOL     OW 1162   2.559   2.731   0.137
  374SOL    HW1 1163   2.648   2.691   0.136
  374SOL    HW2 1164   2.524   2.696   0.052
  375SOL     OW 1165   5.189   1.619   2.518
  375SOL    HW1 1166   5.187   1.705   2.473
  375SOL    HW2 1167   5.107   1.578   2.487
  376SOL     OW 1168   5.767   0.274   2.952
  376SOL    HW1 1169   5.789   0.186   2.983
  376SOL    HW2 1170   5.727   0.314   3.032
  377SOL     OW 1171   5.273   0.076   3.024
  377SOL    HW1 1172   5.194   0.063   2.969
  377SOL    HW2 1173   5.314  -0.012   3.019
  378SOL     OW 1174   5.103   1.307   2.246
  378SOL    HW1 1175   5.079   1.212   2.252
  378SOL    HW2 1176   5.187   1.312   2.294
  379SOL     OW 1177   2.800   3.718   0.089
  379SOL    HW1 1178   2.794   3.814   0.109
  379SOL    HW2 1179   2.891   3.713   0.052
  380SOL     OW 1180   1.427   0.030   1.895
  380SOL    HW1 1181   1.494   0.018   1.966
  380SOL    HW2 1182   1.345   0.023   1.944
  381SOL     OW 1183   5.619   0.472   2.522
  381SOL    HW1 1184   5.562   0.551   2.518
  381SOL    HW2 1185   5.611   0.447   2.616
  382SOL     OW 1186   5.935   0.292   2.734
  382SOL    HW1 1187   5.874   0.300   2.810
  382SOL    HW2 1188   5.922   0.376   2.686
  383SOL     OW 1189   4.385   1.019   2.211
  383SOL    HW1 1190   4.474   0.993   2.180
  383SOL    HW2 1191   4.402   1.040   2.305
  384SOL     OW 1192   5.255   1.670   2.189
  384SOL    HW1 1193   5.174   1.653   2.139
  384SOL    HW2 1194   5.229   1.741   2.251
  385SOL     OW 1195   0.248   2.622   0.112
  385SOL    HW1 1196   0.251   2.535   0.157
  385SOL    HW2 1197   0.302   2.608   0.033
  386SOL     OW 1198   4.538   2.130   1.029
  386SOL    HW1 1199   4.582   2.090   1.106
  386SOL    HW2 1200   4.444   2.117   1.053
  387SOL     OW 1201   4.311   2.194   0.730
  387SOL    HW1 1202   4.267   2.277   0.755
  387SOL    HW2 1203   4.274   2.173   0.642
  388SOL     OW 1204   4.838   3.088   1.223
  388SOL    HW1 1205   4.786   3.150   1.169
  388SOL    HW2 1206   4.815   3.116   1.313
  389SOL     OW 1207   1.575   3.355   0.724
  389SOL    HW1 1208   1.524   3.326   0.802
  389SOL    HW2 1209   1.505   3.356   0.656
  390SOL     OW 1210   1.145   2.569   0.679
  390SOL    HW1 1211   1.188   2.656   0.667
  390SOL    HW2 1212   1.099   2.582   0.763
  391SOL     OW 1213   1.734   2.518   0.228
  391SOL    HW1 1214   1.653   2.569   0.219
  391SOL    HW2 1215   1.701   2.433   0.263
  392SOL     OW 1216   5.041   2.970   1.097
  392SOL    HW1 1217   4.963   3.007   1.145
  392SOL    HW2 1218   5.075   3.051   1.054
  393SOL     OW 1219   5.247   2.577   1.778
  393SOL    HW1 1220   5.270   2.642   1.846
  393SOL    HW2 1221   5.248   2.633   1.698
  394SOL     OW 1222   0.705   2.822   0.674
  394SOL    HW1 1223   0.768   2.834   0.747
  394SOL    HW2 1224   0.630   2.878   0.701
  395SOL     OW 1225   5.081   3.017   1.867
  395SOL    HW1 1226   5.144   3.075   1.915
  395SOL    HW2 1227   5.045   3.079   1.801
  396SOL     OW 1228   4.687   3.253   1.056
  396SOL    HW1 1229   4.644   3.195   0.992
  396SOL    HW2 1230   4.737   3.313   0.997
  397SOL     OW 1231   1.437   3.496   1.375
  397SOL    HW1 1232   1.513   3.507   1.433
  397SOL    HW2 1233   1.367   3.470   1.439
  398SOL     OW 1234   4.794   2.233   1.461
  398SOL    HW1 1235   4.866   2.199   1.515
  398SOL    HW2 1236   4.718   2.181   1.493
  399SOL     OW 1237   1.565   2.306   0.749
  399SOL    HW1 1238   1.486   2.306   0.692
  399SOL    HW2 1239   1.550   2.384   0.802
  400SOL     OW 1240   4.504   3.575   0.472
  400SOL    HW1 1241   4.459   3.654   0.508
  400SOL    HW2 1242   4.588   3.613   0.440
  401SOL     OW 1243   5.484   3.187   1.701
  401SOL    HW1 1244   5.538   3.156   1.776
  401SOL    HW2 1245   5.425   3.110   1.689
  402SOL     OW 1246   4.610   3.328   0.488
  402SOL    HW1 1247   4.571   3.417   0.490
  402SOL    HW2 1248   4.558   3.281   0.556
  403SOL     OW 1249   4.598   2.893   0.866
  403SOL    HW1 1250   4.616   2.802   0.898
  403SOL    HW2 1251   4.531   2.924   0.930
  404SOL     OW 1252   4.894   3.742   1.360
  404SOL    HW1 1253   4.826   3.710   1.422
  404SOL    HW2 1254   4.948   3.800   1.418
  405SOL     OW 1255   0.571   2.835   0.253
  405SOL    HW1 1256   0.607   2.869   0.170
  405SOL    HW2 1257   0.633   2.875   0.318
  406SOL     OW 1258   1.683   1.952   1.530
  406SOL    HW1 1259   1.713   2.033   1.485
  406SOL    HW2 1260   1.618   1.987   1.593
  407SOL     OW 1261   4.467   2.427   0.506
  407SOL    HW1 1262   4.377   2.393   0.498
  407SOL    HW2 1263   4.462   2.475   0.591
  408SOL     OW 1264   1.843   3.543   0.294
  408SOL    HW1 1265   1.906   3.561   0.366
  408SOL    HW2 1266   1.861   3.619   0.235
  409SOL     OW 1267   4.211   3.367   0.133
  409SOL    HW1 1268   4.237   3.299   0.197
  409SOL    HW2 1269   4.270   3.440   0.155
  410SOL     OW 1270   1.722   2.766   0.694
  410SOL    HW1 1271   1.807   2.721   0.686
  410SOL    HW2 1272   1.716   2.815   0.610
  411SOL     OW 1273   1.715   2.910   0.466
  411SOL    HW1 1274   1.804   2.918   0.428
  411SOL    HW2 1275   1.705   2.998   0.509
  412SOL     OW 1276   4.451   2.674   1.553
  412SOL    HW1 1277   4.478   2.712   1.467
  412SOL    HW2 1278   4.466   2.752   1.611
  413SOL     OW 1279   0.619   3.216   0.727
  413SOL    HW1 1280   0.579   3.127   0.738
  413SOL    HW2 1281   0.596   3.234   0.633
  414SOL     OW 1282   1.428   3.067   1.360
  414SOL    HW1 1283   1.359   3.012   1.319
  414SOL    HW2 1284   1.419   3.048   1.455
  415SOL     OW 1285   0.827   1.884   0.523
  415SOL    HW1 1286   0.861   1.967   0.483
  415SOL    HW2 1287   0.730   1.900   0.522
  416SOL     OW 1288   4.521   2.779   1.308
  416SOL    HW1 1289   4.614   2.751   1.297
  416SOL    HW2 1290   4.490   2.781   1.217
  417SOL     OW 1291   1.571   2.804   0.262
  417SOL    HW1 1292   1.496   2.758   0.304
  417SOL    HW2 1293   1.620   2.839   0.339
  418SOL     OW 1294   1.264   3.747   1.661
  418SOL    HW1 1295   1.234   3.785   1.576
  418SOL    HW2 1296   1.259   3.652   1.644
  419SOL     OW 1297   4.772   2.170   1.809
  419SOL    HW1 1298   4.795   2.236   1.876
  419SOL    HW2 1299   4.681   2.195   1.787
  420SOL     OW 1300   1.445   3.275   0.952
  420SOL    HW1 1301   1.381   3.296   1.022
  420SOL    HW2 1302   1.421   3.183   0.931
  421SOL     OW 1303   1.629   3.613   0.606
  421SOL    HW1 1304   1.616   3.572   0.518
  421SOL    HW2 1305   1.616   3.538   0.665
  422SOL     OW 1306   0.611   2.576   0.343
  422SOL    HW1 1307   0.599   2.668   0.313
  422SOL    HW2 1308   0.546   2.569   0.416
  423SOL     OW 1309   1.275   2.289   0.948
  423SOL    HW1 1310   1.188   2.247   0.955
  423SOL    HW2 1311   1.330   2.230   1.003
  424SOL     OW 1312   1.584   3.499   0.363
  424SOL    HW1 1313   1.679   3.508   0.341
  424SOL    HW2 1314   1.548   3.479   0.274
  425SOL     OW 1315   5.144   2.458   1.420
  425SOL    HW1 1316   5.107   2.423   1.504
  425SOL    HW2 1317   5.113   2.394   1.354
  426SOL     OW 1318   1.372   2.329   1.658
  426SOL    HW1 1319   1.381   2.373   1.745
  426SOL    HW2 1320   1.431   2.253   1.667
  427SOL     OW 1321   5.274   2.762   1.560
  427SOL    HW1 1322   5.328   2.701   1.505
  427SOL    HW2 1323   5.228   2.812   1.491
  428SOL     OW 1324   1.008   2.250   1.196
  428SOL    HW1 1325   0.914   2.270   1.214
  428SOL    HW2 1326   1.004   2.215   1.106
  429SOL     OW 1327   1.096   2.557   0.412
  429SOL    HW1 1328   1.108   2.557   0.509
  429SOL    HW2 1329   1.007   2.517   0.404
  430SOL     OW 1330   4.451   2.579   0.734
  430SOL    HW1 1331   4.522   2.595   0.798
  430SOL    HW2 1332   4.436   2.669   0.698
  431SOL     OW 1333   4.499   3.791   1.684
  431SOL    HW1 1334   4.506   3.712   1.741
  431SOL    HW2 1335   4.403   3.809   1.693
  432SOL     OW 1336   0.902   2.271   0.161
  432SOL    HW1 1337   0.962   2.328   0.109
  432SOL    HW2 1338   0.917   2.183   0.122
  433SOL     OW 1339   1.669   2.443   1.859
  433SOL    HW1 1340   1.657   2.521   1.802
  433SOL    HW2 1341   1.699   2.375   1.796
  434SOL     OW 1342   1.367   3.051   0.605
  434SOL    HW1 1343   1.433   3.073   0.537
  434SOL    HW2 1344   1.292   3.104   0.572
  435SOL     OW 1345   4.884   2.011   0.955
  435SOL    HW1 1346   4.891   2.035   1.049
  435SOL    HW2 1347   4.877   2.100   0.914
  436SOL     OW 1348   0.958   3.341   0.477
  436SOL    HW1 1349   0.933   3.417   0.423
  436SOL    HW2 1350   0.909   3.360   0.559
  437SOL     OW 1351   4.658   3.638   0.870
  437SOL    HW1 1352   4.706   3.554   0.873
  437SOL    HW2 1353   4.725   3.702   0.897
  438SOL     OW 1354   1.813   2.885   0.926
  438SOL    HW1 1355   1.770   2.859   0.843
  438SOL    HW2 1356   1.735   2.906   0.982
  439SOL     OW 1357   1.240   3.413   1.543
  439SOL    HW1 1358   1.230   3.334   1.598
  439SOL    HW2 1359   1.170   3.398   1.476
  440SOL     OW 1360   0.303   2.828   0.280
  440SOL    HW1 1361   0.400   2.830   0.271
  440SOL    HW2 1362   0.281   2.747   0.228
  441SOL     OW 1363   1.484   2.639   0.691
  441SOL    HW1 1364   1.470   2.602   0.780
  441SOL    HW2 1365   1.569   2.686   0.700
  442SOL     OW 1366   4.803   3.183   1.719
  442SOL    HW1 1367   4.779   3.183   1.624
  442SOL    HW2 1368   4.723   3.144   1.758
  443SOL     OW 1369   1.122   3.653   0.233
  443SOL    HW1 1370   1.037   3.622   0.268
  443SOL    HW2 1371   1.185   3.605   0.288
  444SOL     OW 1372   4.572   2.092   1.534
  444SOL    HW1 1373   4.544   2.152   1.605
  444SOL    HW2 1374   4.530   2.009   1.563
  445SOL     OW 1375   1.661   3.220   0.160
  445SOL    HW1 1376   1.618   3.303   0.134
  445SOL    HW2 1377   1.595   3.154   0.133
  446SOL     OW 1378   0.438   3.619   0.332
  446SOL    HW1 1379   0.490   3.659   0.403
  446SOL    HW2 1380   0.506   3.569   0.284
  447SOL     OW 1381   1.392   1.955   0.478
  447SOL    HW1 1382   1.402   1.945   0.381
  447SOL    HW2 1383   1.479   1.925   0.509
  448SOL     OW 1384   4.502   3.661   1.219
  448SOL    HW1 1385   4.555   3.582   1.238
  448SOL    HW2 1386   4.458   3.637   1.135
  449SOL     OW 1387   0.906   3.564   0.890
  449SOL    HW1 1388   0.887   3.519   0.974
  449SOL    HW2 1389   0.921   3.488   0.830
  450SOL     OW 1390   0.417   2.520   0.526
  450SOL    HW1 1391   0.434   2.428   0.557
  450SOL    HW2 1392   0.321   2.516   0.510
  451SOL     OW 1393   1.505   2.078   1.709
  451SOL    HW1 1394   1.516   2.092   1.806
  451SOL    HW2 1395   1.428   2.019   1.707
  452SOL     OW 1396   0.639   2.004   0.138
  452SOL    HW1 1397   0.736   1.998   0.127
  452SOL    HW2 1398   0.613   2.027   0.046
  453SOL     OW 1399   5.095   2.123   1.691
  453SOL    HW1 1400   5.176   2.074   1.717
  453SOL    HW2 1401   5.035   2.102   1.764
  454SOL     OW 1402   0.823   3.435   1.120
  454SOL    HW1 1403   0.797   3.351   1.079
  454SOL    HW2 1404   0.882   3.403   1.192
  455SOL     OW 1405   1.291   2.452   1.426
  455SOL    HW1 1406   1.327   2.421   1.512
  455SOL    HW2 1407   1.327   2.542   1.419
  456SOL     OW 1408   0.783   3.204   0.965
  456SOL    HW1 1409   0.877   3.205   0.937
  456SOL    HW2 1410   0.735   3.204   0.880
  457SOL     OW 1411   0.925   2.386   0.878
  457SOL    HW1 1412   0.903   2.370   0.784
  457SOL    HW2 1413   0.955   2.298   0.905
  458SOL     OW 1414   0.561   1.919   0.508
  458SOL    HW1 1415   0.479   1.917   0.562
  458SOL    HW2 1416   0.554   2.005   0.463
  459SOL     OW 1417   1.474   3.023   0.127
  459SOL    HW1 1418   1.508   2.943   0.172
  459SOL    HW2 1419   1.437   2.987   0.046
  460SOL     OW 1420   0.364   1.976   0.182
  460SOL    HW1 1421   0.458   1.990   0.163
  460SOL    HW2 1422   0.366   1.886   0.219
  461SOL     OW 1423   0.941   2.114   0.429
  461SOL    HW1 1424   0.929   2.169   0.351
  461SOL    HW2 1425   1.034   2.131   0.453
  462SOL     OW 1426   1.051   2.580   1.391
  462SOL    HW1 1427   0.975   2.520   1.401
  462SOL    HW2 1428   1.128   2.521   1.401
  463SOL     OW 1429   1.170   3.443   0.806
  463SOL    HW1 1430   1.209   3.499   0.737
  463SOL    HW2 1431   1.179   3.499   0.885
  464SOL     OW 1432   4.821   2.980   0.734
  464SOL    HW1 1433   4.747   2.950   0.791
  464SOL    HW2 1434   4.776   2.986   0.647
  465SOL     OW 1435   1.258   3.649   0.619
  465SOL    HW1 1436   1.296   3.719   0.563
  465SOL    HW2 1437   1.183   3.694   0.661
  466SOL     OW 1438   1.047   2.456   0.011
  466SOL    HW1 1439   1.037   2.551   0.034
  466SOL    HW2 1440   1.143   2.443   0.019
  467SOL     OW 1441   4.440   2.474   1.354
  467SOL    HW1 1442   4.533   2.449   1.339
  467SOL    HW2 1443   4.445   2.519   1.440
  468SOL     OW 1444   4.896   2.081   1.215
  468SOL    HW1 1445   4.940   2.052   1.297
  468SOL    HW2 1446   4.802   2.070   1.240
  469SOL     OW 1447   0.881   2.315   0.622
  469SOL    HW1 1448   0.859   2.377   0.550
  469SOL    HW2 1449   0.887   2.232   0.574
  470SOL     OW 1450   1.009   1.940   0.737
  470SOL    HW1 1451   0.947   1.933   0.662
  470SOL    HW2 1452   0.976   1.869   0.795
  471SOL     OW 1453   1.398   3.013   0.883
  471SOL    HW1 1454   1.341   2.937   0.902
  471SOL    HW2 1455   1.386   3.025   0.787
  472SOL     OW 1456   1.438   2.519   0.930
  472SOL    HW1 1457   1.375   2.447   0.949
  472SOL    HW2 1458   1.501   2.512   1.004
  473SOL     OW 1459   1.914   2.669   0.379
  473SOL    HW1 1460   1.923   2.609   0.456
  473SOL    HW2 1461   1.850   2.621   0.324
  474SOL     OW 1462   0.528   3.269   0.147
  474SOL    HW1 1463   0.454   3.224   0.193
  474SOL    HW2 1464   0.501   3.259   0.054
  475SOL     OW 1465   1.747   3.142   0.598
  475SOL    HW1 1466   1.838   3.146   0.631
  475SOL    HW2 1467   1.701   3.213   0.645
  476SOL     OW 1468   1.322   2.436   0.028
  476SOL    HW1 1469   1.342   2.371   0.098
  476SOL    HW2 1470   1.382   2.406  -0.044
  477SOL     OW 1471   0.558   2.144   0.361
  477SOL    HW1 1472   0.594   2.090   0.288
  477SOL    HW2 1473   0.544   2.228   0.315
  478SOL     OW 1474   1.746   3.074   1.540
  478SOL    HW1 1475   1.839   3.049   1.536
  478SOL    HW2 1476   1.753   3.168   1.564
  479SOL     OW 1477   1.625   3.500   1.688
  479SOL    HW1 1478   1.646   3.563   1.617
  479SOL    HW2 1479   1.686   3.427   1.666
  480SOL     OW 1480   1.078   3.091   1.149
  480SOL    HW1 1481   1.055   3.161   1.212
  480SOL    HW2 1482   1.068   3.137   1.064
  481SOL     OW 1483   1.595   2.956   1.066
  481SOL    HW1 1484   1.600   3.038   1.119
  481SOL    HW2 1485   1.522   2.976   1.004
  482SOL     OW 1486   5.278   1.911   1.351
  482SOL    HW1 1487   5.304   1.913   1.257
  482SOL    HW2 1488   5.352   1.960   1.393
  483SOL     OW 1489   5.326   2.961   1.738
  483SOL    HW1 1490   5.235   2.979   1.766
  483SOL    HW2 1491   5.312   2.894   1.668
  484SOL     OW 1492   0.763   2.918   0.423
  484SOL    HW1 1493   0.749   2.881   0.512
  484SOL    HW2 1494   0.839   2.866   0.390
  485SOL     OW 1495   4.767   2.680   1.274
  485SOL    HW1 1496   4.842   2.687   1.336
  485SOL    HW2 1497   4.745   2.585   1.282
  486SOL     OW 1498   1.254   2.221   1.294
  486SOL    HW1 1499   1.272   2.306   1.338
  486SOL    HW2 1500   1.164   2.236   1.259
  487SOL     OW 1501   4.375   3.398   1.354
  487SOL    HW1 1502   4.366   3.475   1.411
  487SOL    HW2 1503   4.469   3.404   1.328
  488SOL     OW 1504   0.360   2.995   0.501
  488SOL    HW1 1505   0.363   3.063   0.431
  488SOL    HW2 1506   0.338   2.917   0.450
  489SOL     OW 1507   4.867   2.278   0.873
  489SOL    HW1 1508   4.860   2.295   0.778
  489SOL    HW2 1509   4.927   2.349   0.903
  490SOL     OW 1510   1.204   3.228   0.465
  490SOL    HW1 1511   1.266   3.296   0.496
  490SOL    HW2 1512   1.117   3.267   0.487
  491SOL     OW 1513   1.296   3.354   1.171
  491SOL    HW1 1514   1.354   3.379   1.245
  491SOL    HW2 1515   1.213   3.333   1.218
  492SOL     OW 1516   1.494   2.482   0.467
  492SOL    HW1 1517   1.492   2.533   0.550
  492SOL    HW2 1518   1.438   2.537   0.409
  493SOL     OW 1519   4.635   3.416   1.266
  493SOL    HW1 1520   4.642   3.351   1.193
  493SOL    HW2 1521   4.727   3.450   1.267
  494SOL     OW 1522   4.845   2.572   1.646
  494SOL    HW1 1523   4.886   2.617   1.570
  494SOL    HW2 1524   4.911   2.501   1.663
  495SOL     OW 1525   1.631   2.662   1.707
  495SOL    HW1 1526   1.538   2.689   1.697
  495SOL    HW2 1527   1.671   2.701   1.627
  496SOL     OW 1528   5.318   1.986   1.771
  496SOL    HW1 1529   5.374   2.062   1.747
  496SOL    HW2 1530   5.382   1.914   1.767
  497SOL     OW 1531   4.843   1.914   1.810
  497SOL    HW1 1532   4.803   1.868   1.734
  497SOL    HW2 1533   4.812   2.006   1.799
  498SOL     OW 1534   4.902   2.723   1.038
  498SOL    HW1 1535   4.949   2.807   1.049
  498SOL    HW2 1536   4.854   2.716   1.123
  499SOL     OW 1537   1.284   2.763   0.974
  499SOL    HW1 1538   1.196   2.724   0.955
  499SOL    HW2 1539   1.342   2.687   0.961
  500SOL     OW 1540   1.218   2.340   0.291
  500SOL    HW1 1541   1.231   2.290   0.373
  500SOL    HW2 1542   1.182   2.424   0.323
  501SOL     OW 1543   4.630   2.032   1.268
  501SOL    HW1 1544   4.605   2.058   1.359
  501SOL    HW2 1545   4.598   1.939   1.266
  502SOL     OW 1546   4.386   3.149   1.232
  502SOL    HW1 1547   4.422   3.101   1.309
  502SOL    HW2 1548   4.372   3.238   1.270
  503SOL     OW 1549   5.016   2.464   1.011
  503SOL    HW1 1550   5.096   2.465   0.955
  503SOL    HW2 1551   4.984   2.556   1.002
  504SOL     OW 1552   1.777   2.829   1.873
  504SOL    HW1 1553   1.726   2.763   1.823
  504SOL    HW2 1554   1.714   2.856   1.941
  505SOL     OW 1555   4.653   1.910   0.637
  505SOL    HW1 1556   4.618   1.997   0.666
  505SOL    HW2 1557   4.665   1.866   0.724
  506SOL     OW 1558   1.632   2.289   0.338
  506SOL    HW1 1559   1.670   2.223   0.399
  506SOL    HW2 1560   1.580   2.347   0.398
  507SOL     OW 1561   1.040   2.625   0.934
  507SOL    HW1 1562   1.016   2.649   1.026
  507SOL    HW2 1563   0.998   2.537   0.924
  508SOL     OW 1564   5.344   3.405   1.783
  508SOL    HW1 1565   5.313   3.459   1.709
  508SOL    HW2 1566   5.379   3.326   1.737
  509SOL     OW 1567   1.823   3.334   1.589
  509SOL    HW1 1568   1.852   3.365   1.501
  509SOL    HW2 1569   1.902   3.352   1.642
  510SOL     OW 1570   4.757   2.793   1.783
  510SOL    HW1 1571   4.812   2.803   1.862
  510SOL    HW2 1572   4.796   2.714   1.741
  511SOL     OW 1573   1.487   2.193   0.129
  511SOL    HW1 1574   1.474   2.104   0.165
  511SOL    HW2 1575   1.542   2.234   0.198
  512SOL     OW 1576   1.325   2.704   0.041
  512SOL    HW1 1577   1.325   2.607   0.027
  512SOL    HW2 1578   1.415   2.727   0.009
  513SOL     OW 1579   1.044   3.217   0.897
  513SOL    HW1 1580   1.070   3.141   0.841
  513SOL    HW2 1581   1.096   3.290   0.859
  514SOL     OW 1582   4.656   2.633   0.927
  514SOL    HW1 1583   4.750   2.656   0.939
  514SOL    HW2 1584   4.654   2.543   0.963
  515SOL     OW 1585   4.656   2.369   1.019
  515SOL    HW1 1586   4.608   2.283   1.020
  515SOL    HW2 1587   4.735   2.343   0.967
  516SOL     OW 1588   5.459   2.206   1.683
  516SOL    HW1 1589   5.416   2.258   1.754
  516SOL    HW2 1590   5.542   2.255   1.670
  517SOL     OW 1591   1.154   2.040   1.470
  517SOL    HW1 1592   1.136   2.103   1.542
  517SOL    HW2 1593   1.199   2.097   1.405
  518SOL     OW 1594   4.266   3.179   0.332
  518SOL    HW1 1595   4.179   3.137   0.327
  518SOL    HW2 1596   4.323   3.102   0.355
  519SOL     OW 1597   4.408   3.593   0.965
  519SOL    HW1 1598   4.399   3.507   0.924
  519SOL    HW2 1599   4.493   3.624   0.927
  520SOL     OW 1600   4.815   3.408   0.872
  520SOL    HW1 1601   4.880   3.479   0.858
  520SOL    HW2 1602   4.854   3.336   0.819
  521SOL     OW 1603   0.967   2.714   1.173
  521SOL    HW1 1604   1.007   2.664   1.247
  521SOL    HW2 1605   0.923   2.786   1.220
  522SOL     OW 1606   4.388   2.439   1.088
  522SOL    HW1 1607   4.480   2.423   1.062
  522SOL    HW2 1608   4.397   2.455   1.183
  523SOL     OW 1609   4.591   2.508   1.729
  523SOL    HW1 1610   4.683   2.523   1.701
  523SOL    HW2 1611   4.543   2.568   1.670
  524SOL     OW 1612   1.386   2.764   1.652
  524SOL    HW1 1613   1.413   2.858   1.645
  524SOL    HW2 1614   1.368   2.743   1.558
  525SOL     OW 1615   0.852   2.444   0.377
  525SOL    HW1 1616   0.853   2.389   0.297
  525SOL    HW2 1617   0.769   2.495   0.365
  526SOL     OW 1618   1.625   2.497   1.127
  526SOL    HW1 1619   1.612   2.432   1.196
  526SOL    HW2 1620   1.721   2.490   1.111
  527SOL     OW 1621   4.570   3.445   1.629
  527SOL    HW1 1622   4.552   3.486   1.716
  527SOL    HW2 1623   4.513   3.366   1.634
  528SOL     OW 1624   5.070   2.296   1.217
  528SOL    HW1 1625   5.003   2.225   1.210
  528SOL    HW2 1626   5.043   2.356   1.144
  529SOL     OW 1627   5.252   3.545   1.553
  529SOL    HW1 1628   5.278   3.483   1.482
  529SOL    HW2 1629   5.255   3.631   1.506
  530SOL     OW 1630   0.521   2.365   0.204
  530SOL    HW1 1631   0.556   2.444   0.250
  530SOL    HW2 1632   0.425   2.376   0.217
  531SOL     OW 1633   4.502   3.017   1.439
  531SOL    HW1 1634   4.501   2.985   1.531
  531SOL    HW2 1635   4.511   2.933   1.390
  532SOL     OW 1636   1.255   2.897   1.219
  532SOL    HW1 1637   1.264   2.854   1.132
  532SOL    HW2 1638   1.185   2.964   1.199
  533SOL     OW 1639   1.342   2.656   0.317
  533SOL    HW1 1640   1.253   2.637   0.351
  533SOL    HW2 1641   1.324   2.676   0.223
  534SOL     OW 1642   1.801   3.594   1.194
  534SOL    HW1 1643   1.853   3.621   1.117
  534SOL    HW2 1644   1.745   3.524   1.156
  535SOL     OW 1645   1.211   3.579   1.047
  535SOL    HW1 1646   1.293   3.625   1.068
  535SOL    HW2 1647   1.228   3.492   1.088
  536SOL     OW 1648   4.391   2.991   1.016
  536SOL    HW1 1649   4.391   3.049   1.096
  536SOL    HW2 1650   4.341   3.044   0.954
  537SOL     OW 1651   5.055   3.518   1.734
  537SOL    HW1 1652   4.998   3.596   1.722
  537SOL    HW2 1653   5.124   3.533   1.666
  538SOL     OW 1654   0.906   2.006   0.059
  538SOL    HW1 1655   0.923   1.989  -0.034
  538SOL    HW2 1656   0.971   1.947   0.102
  539SOL     OW 1657   1.761   2.082   0.477
  539SOL    HW1 1658   1.822   2.049   0.409
  539SOL    HW2 1659   1.717   2.000   0.506
  540SOL     OW 1660   1.383   3.422   0.535
  540SOL    HW1 1661   1.448   3.449   0.467
  540SOL    HW2 1662   1.343   3.506   0.563
  541SOL     OW 1663   4.502   3.583   1.858
  541SOL    HW1 1664   4.450   3.509   1.897
  541SOL    HW2 1665   4.533   3.628   1.937
  542SOL     OW 1666   1.271   2.803   0.647
  542SOL    HW1 1667   1.353   2.751   0.655
  542SOL    HW2 1668   1.307   2.891   0.621
  543SOL     OW 1669   5.189   3.118   1.471
  543SOL    HW1 1670   5.147   3.164   1.546
  543SOL    HW2 1671   5.242   3.188   1.430
  544SOL     OW 1672   0.647   3.504   0.182
  544SOL    HW1 1673   0.669   3.511   0.089
  544SOL    HW2 1674   0.607   3.415   0.184
  545SOL     OW 1675   1.696   3.641   1.457
  545SOL    HW1 1676   1.721   3.627   1.364
  545SOL    HW2 1677   1.640   3.722   1.450
  546SOL     OW 1678   1.856   2.018   0.969
  546SOL    HW1 1679   1.876   1.929   0.936
  546SOL    HW2 1680   1.767   2.036   0.932
  547SOL     OW 1681   4.577   2.143   0.749
  547SOL    HW1 1682   4.484   2.170   0.734
  547SOL    HW2 1683   4.578   2.136   0.846
  548SOL     OW 1684   1.261   3.394   0.003
  548SOL    HW1 1685   1.237   3.325   0.068
  548SOL    HW2 1686   1.184   3.453   0.008
  549SOL     OW 1687   5.146   2.887   1.343
  549SOL    HW1 1688   5.110   2.920   1.259
  549SOL    HW2 1689   5.163   2.973   1.390
  550SOL     OW 1690   0.963   2.778   0.308
  550SOL    HW1 1691   0.986   2.767   0.215
  550SOL    HW2 1692   1.015   2.709   0.351
  551SOL     OW 1693   1.515   3.449   0.105
  551SOL    HW1 1694   1.430   3.436   0.058
  551SOL    HW2 1695   1.549   3.532   0.065
  552SOL     OW 1696   4.714   3.189   1.458
  552SOL    HW1 1697   4.680   3.276   1.434
  552SOL    HW2 1698   4.635   3.131   1.450
  553SOL     OW 1699   1.635   3.175   1.234
  553SOL    HW1 1700   1.709   3.145   1.288
  553SOL    HW2 1701   1.557   3.145   1.286
  554SOL     OW 1702   1.085   2.987   0.762
  554SOL    HW1 1703   1.009   2.938   0.797
  554SOL    HW2 1704   1.137   2.918   0.718
  555SOL     OW 1705   1.040   2.128   0.946
  555SOL    HW1 1706   1.031   2.084   0.859
  555SOL    HW2 1707   1.042   2.050   1.005
  556SOL     OW 1708   0.550   3.280   0.477
  556SOL    HW1 1709   0.567   3.260   0.384
  556SOL    HW2 1710   0.455   3.304   0.476
  557SOL     OW 1711   1.791   2.195   1.432
  557SOL    HW1 1712   1.854   2.267   1.411
  557SOL    HW2 1713   1.802   2.136   1.354
  558SOL     OW 1714   0.321   3.163   0.280
  558SOL    HW1 1715   0.243   3.138   0.227
  558SOL    HW2 1716   0.285   3.229   0.343
  559SOL     OW 1717   4.531   2.898   1.687
  559SOL    HW1 1718   4.525   2.975   1.747
  559SOL    HW2 1719   4.615   2.858   1.720
  560SOL     OW 1720   5.038   2.009   1.444
  560SOL    HW1 1721   5.124   1.980   1.409
  560SOL    HW2 1722   5.064   2.057   1.525
  561SOL     OW 1723   6.485   0.115   3.054
  561SOL    HW1 1724   6.467   0.038   2.998
  561SOL    HW2 1725   6.576   0.096   3.083
  562SOL     OW 1726   1.371   2.713   1.386
  562SOL    HW1 1727   1.313   2.772   1.334
  562SOL    HW2 1728   1.456   2.726   1.341
  563SOL     OW 1729   4.459   2.052   0.322
  563SOL    HW1 1730   4.422   2.012   0.241
  563SOL    HW2 1731   4.553   2.040   0.307
  564SOL     OW 1732   1.151   3.229   0.197
  564SOL    HW1 1733   1.111   3.142   0.188
  564SOL    HW2 1734   1.182   3.227   0.290
  565SOL     OW 1735   4.984   2.680   1.432
  565SOL    HW1 1736   5.037   2.758   1.408
  565SOL    HW2 1737   5.049   2.608   1.422
  566SOL     OW 1738   1.466   3.642   1.144
  566SOL    HW1 1739   1.530   3.579   1.108
  566SOL    HW2 1740   1.448   3.602   1.232
  567SOL     OW 1741   5.056   2.397   1.671
  567SOL    HW1 1742   5.122   2.445   1.724
  567SOL    HW2 1743   5.076   2.304   1.688
  568SOL     OW 1744   1.487   3.014   1.631
  568SOL    HW1 1745   1.480   3.052   1.721
  568SOL    HW2 1746   1.577   3.040   1.605
  569SOL     OW 1747   4.710   3.658   1.543
  569SOL    HW1 1748   4.633   3.709   1.569
  569SOL    HW2 1749   4.677   3.567   1.557
  570SOL     OW 1750   1.603   2.750   1.248
  570SOL    HW1 1751   1.615   2.670   1.195
  570SOL    HW2 1752   1.599   2.820   1.181
  571SOL     OW 1753   1.205   2.153   0.492
  571SOL    HW1 1754   1.275   2.085   0.493
  571SOL    HW2 1755   1.232   2.211   0.566
  572SOL     OW 1756   0.594   2.572   0.736
  572SOL    HW1 1757   0.639   2.654   0.713
  572SOL    HW2 1758   0.529   2.563   0.665
  573SOL     OW 1759   1.744   2.240   1.693
  573SOL    HW1 1760   1.758   2.231   1.596
  573SOL    HW2 1761   1.668   2.181   1.708
  574SOL     OW 1762   1.727   2.793   1.489
  574SOL    HW1 1763   1.718   2.889   1.501
  574SOL    HW2 1764   1.684   2.779   1.402
  575SOL     OW 1765   0.887   3.134   0.039
  575SOL    HW1 1766   0.863   3.128   0.134
  575SOL    HW2 1767   0.889   3.230   0.028
  576SOL     OW 1768   0.650   3.612   0.817
  576SOL    HW1 1769   0.612   3.698   0.842
  576SOL    HW2 1770   0.740   3.617   0.852
  577SOL     OW 1771   0.877   2.851   0.883
  577SOL    HW1 1772   0.928   2.772   0.909
  577SOL    HW2 1773   0.837   2.879   0.967
  578SOL     OW 1774   1.052   2.731   0.052
  578SOL    HW1 1775   1.016   2.795  -0.013
  578SOL    HW2 1776   1.148   2.740   0.039
  579SOL     OW 1777   1.823   3.406   0.825
  579SOL    HW1 1778   1.736   3.393   0.781
  579SOL    HW2 1779   1.803   3.375   0.914
  580SOL     OW 1780   4.564   3.125   1.840
  580SOL    HW1 1781   4.500   3.189   1.807
  580SOL    HW2 1782   4.571   3.147   1.934
  581SOL     OW 1783   4.472   3.158   0.647
  581SOL    HW1 1784   4.383   3.122   0.662
  581SOL    HW2 1785   4.518   3.085   0.604
  582SOL     OW 1786   5.062   3.243   1.686
  582SOL    HW1 1787   4.966   3.226   1.690
  582SOL    HW2 1788   5.066   3.338   1.703
  583SOL     OW 1789   1.809   2.013   1.237
  583SOL    HW1 1790   1.802   1.917   1.238
  583SOL    HW2 1791   1.831   2.031   1.144
  584SOL     OW 1792   0.452   2.266   0.604
  584SOL    HW1 1793   0.479   2.209   0.531
  584SOL    HW2 1794   0.378   2.217   0.645
  585SOL     OW 1795   1.653   3.395   1.079
  585SOL    HW1 1796   1.580   3.363   1.024
  585SOL    HW2 1797   1.657   3.321   1.144
  586SOL     OW 1798   4.698   2.421   1.295
  586SOL    HW1 1799   4.741   2.353   1.353
  586SOL    HW2 1800   4.706   2.382   1.207
  587SOL     OW 1801   0.798   3.414   0.678
  587SOL    HW1 1802   0.740   3.489   0.697
  587SOL    HW2 1803   0.739   3.339   0.693
  588SOL     OW 1804   1.418   2.121   1.105
  588SOL    HW1 1805   1.434   2.028   1.127
  588SOL    HW2 1806   1.367   2.153   1.183
  589SOL     OW 1807   1.040   1.888   1.085
  589SOL    HW1 1808   0.986   1.826   1.032
  589SOL    HW2 1809   1.126   1.841   1.086
  590SOL     OW 1810   0.850   3.149   0.305
  590SOL    HW1 1811   0.814   3.073   0.354
  590SOL    HW2 1812   0.886   3.204   0.376
  591SOL     OW 1813   4.890   3.501   1.232
  591SOL    HW1 1814   4.905   3.588   1.272
  591SOL    HW2 1815   4.977   3.478   1.197
  592SOL     OW 1816   1.420   1.932   0.205
  592SOL    HW1 1817   1.454   1.846   0.177
  592SOL    HW2 1818   1.340   1.943   0.151
  593SOL     OW 1819   1.284   2.329   0.680
  593SOL    HW1 1820   1.238   2.415   0.672
  593SOL    HW2 1821   1.279   2.314   0.777
  594SOL     OW 1822   1.600   2.076   0.903
  594SOL    HW1 1823   1.539   2.108   0.972
  594SOL    HW2 1824   1.591   2.146   0.836
  595SOL     OW 1825   4.412   2.954   0.395
  595SOL    HW1 1826   4.481   2.904   0.350
  595SOL    HW2 1827   4.401   2.903   0.477
  596SOL     OW 1828   0.881   3.554   0.324
  596SOL    HW1 1829   0.789   3.547   0.292
  596SOL    HW2 1830   0.873   3.623   0.393
  597SOL     OW 1831   4.601   2.595   1.996
  597SOL    HW1 1832   4.574   2.512   2.041
  597SOL    HW2 1833   4.593   2.570   1.903
  598SOL     OW 1834   4.548   2.104   2.837
  598SOL    HW1 1835   4.589   2.066   2.917
  598SOL    HW2 1836   4.466   2.053   2.830
  599SOL     OW 1837   4.357   2.224   2.447
  599SOL    HW1 1838   4.263   2.244   2.429
  599SOL    HW2 1839   4.370   2.144   2.391
  600SOL     OW 1840   2.733   0.989   0.012
  600SOL    HW1 1841   2.649   1.000  -0.036
  600SOL    HW2 1842   2.748   1.080   0.043
  601SOL     OW 1843   5.923   3.407   2.541
  601SOL    HW1 1844   5.868   3.375   2.615
  601SOL    HW2 1845   5.859   3.403   2.467
  602SOL     OW 1846   5.470   2.566   2.535
  602SOL    HW1 1847   5.516   2.650   2.513
  602SOL    HW2 1848   5.431   2.587   2.621
  603SOL     OW 1849   1.827   2.440   2.074
  603SOL    HW1 1850   1.773   2.450   1.993
  603SOL    HW2 1851   1.776   2.371   2.119
  604SOL     OW 1852   5.057   2.975   2.943
  604SOL    HW1 1853   4.991   3.027   2.993
  604SOL    HW2 1854   5.105   3.049   2.901
  605SOL     OW 1855   5.021   2.849   2.521
  605SOL    HW1 1856   5.093   2.857   2.586
  605SOL    HW2 1857   4.958   2.917   2.549
  606SOL     OW 1858   4.673   3.240   2.939
  606SOL    HW1 1859   4.618   3.191   2.877
  606SOL    HW2 1860   4.719   3.305   2.882
  607SOL     OW 1861   3.642   1.118   0.172
  607SOL    HW1 1862   3.673   1.211   0.177
  607SOL    HW2 1863   3.690   1.079   0.248
  608SOL     OW 1864   5.902   2.301   2.614
  608SOL    HW1 1865   5.828   2.303   2.551
  608SOL    HW2 1866   5.883   2.379   2.668
  609SOL     OW 1867   4.564   3.578   2.303
  609SOL    HW1 1868   4.603   3.637   2.370
  609SOL    HW2 1869   4.631   3.581   2.233
  610SOL     OW 1870   4.664   3.328   2.346
  610SOL    HW1 1871   4.620   3.415   2.345
  610SOL    HW2 1872   4.601   3.274   2.398
  611SOL     OW 1873   4.593   2.936   2.708
  611SOL    HW1 1874   4.619   2.845   2.735
  611SOL    HW2 1875   4.539   2.964   2.784
  612SOL     OW 1876   2.760   1.410   0.334
  612SOL    HW1 1877   2.821   1.374   0.399
  612SOL    HW2 1878   2.808   1.490   0.303
  613SOL     OW 1879   4.924   2.848   2.028
  613SOL    HW1 1880   4.976   2.899   1.963
  613SOL    HW2 1881   4.966   2.877   2.111
  614SOL     OW 1882   3.834   4.099   0.347
  614SOL    HW1 1883   3.743   4.115   0.317
  614SOL    HW2 1884   3.842   4.163   0.419
  615SOL     OW 1885   4.495   2.447   2.375
  615SOL    HW1 1886   4.443   2.368   2.399
  615SOL    HW2 1887   4.476   2.506   2.450
  616SOL     OW 1888   1.859   3.601   2.164
  616SOL    HW1 1889   1.937   3.598   2.223
  616SOL    HW2 1890   1.860   3.695   2.136
  617SOL     OW 1891   4.372   3.384   1.987
  617SOL    HW1 1892   4.357   3.293   2.018
  617SOL    HW2 1893   4.342   3.436   2.064
  618SOL     OW 1894   6.042   2.816   2.530
  618SOL    HW1 1895   6.126   2.772   2.510
  618SOL    HW2 1896   6.024   2.866   2.448
  619SOL     OW 1897   1.672   2.983   2.304
  619SOL    HW1 1898   1.755   2.960   2.258
  619SOL    HW2 1899   1.701   3.060   2.358
  620SOL     OW 1900   4.955   3.242   2.645
  620SOL    HW1 1901   4.905   3.160   2.627
  620SOL    HW2 1902   4.957   3.281   2.555
  621SOL     OW 1903   3.396   0.987   0.211
  621SOL    HW1 1904   3.412   0.893   0.191
  621SOL    HW2 1905   3.485   1.026   0.202
  622SOL     OW 1906   5.191   1.867   2.384
  622SOL    HW1 1907   5.230   1.951   2.351
  622SOL    HW2 1908   5.095   1.887   2.376
  623SOL     OW 1909   2.426   0.675   0.084
  623SOL    HW1 1910   2.501   0.619   0.057
  623SOL    HW2 1911   2.399   0.716   0.001
  624SOL     OW 1912   1.569   2.903   2.057
  624SOL    HW1 1913   1.493   2.846   2.083
  624SOL    HW2 1914   1.602   2.930   2.145
  625SOL     OW 1915   5.769   3.311   2.749
  625SOL    HW1 1916   5.728   3.316   2.838
  625SOL    HW2 1917   5.756   3.216   2.728
  626SOL     OW 1918   5.964   3.692   2.399
  626SOL    HW1 1919   5.955   3.627   2.327
  626SOL    HW2 1920   5.971   3.635   2.477
  627SOL     OW 1921   4.936   2.568   2.126
  627SOL    HW1 1922   4.934   2.657   2.089
  627SOL    HW2 1923   4.871   2.573   2.199
  628SOL     OW 1924   5.614   2.283   2.791
  628SOL    HW1 1925   5.532   2.230   2.794
  628SOL    HW2 1926   5.670   2.233   2.854
  629SOL     OW 1927   1.600   3.522   2.191
  629SOL    HW1 1928   1.695   3.536   2.177
  629SOL    HW2 1929   1.568   3.511   2.099
  630SOL     OW 1930   2.908   0.288   0.240
  630SOL    HW1 1931   2.914   0.221   0.310
  630SOL    HW2 1932   2.900   0.231   0.161
  631SOL     OW 1933   3.165   0.153   0.031
  631SOL    HW1 1934   3.071   0.129   0.043
  631SOL    HW2 1935   3.169   0.167  -0.064
  632SOL     OW 1936   5.387   2.541   2.273
  632SOL    HW1 1937   5.409   2.541   2.368
  632SOL    HW2 1938   5.299   2.498   2.272
  633SOL     OW 1939   4.451   2.605   2.595
  633SOL    HW1 1940   4.525   2.625   2.655
  633SOL    HW2 1941   4.441   2.690   2.547
  634SOL     OW 1942   5.194   2.211   2.069
  634SOL    HW1 1943   5.248   2.251   1.999
  634SOL    HW2 1944   5.149   2.138   2.022
  635SOL     OW 1945   5.740   3.019   2.413
  635SOL    HW1 1946   5.824   3.011   2.365
  635SOL    HW2 1947   5.688   3.079   2.356
  636SOL     OW 1948   4.934   1.980   2.754
  636SOL    HW1 1949   4.936   2.016   2.844
  636SOL    HW2 1950   4.941   2.059   2.699
  637SOL     OW 1951   5.337   3.310   2.322
  637SOL    HW1 1952   5.317   3.380   2.257
  637SOL    HW2 1953   5.299   3.349   2.403
  638SOL     OW 1954   4.660   3.626   2.711
  638SOL    HW1 1955   4.705   3.540   2.723
  638SOL    HW2 1956   4.722   3.683   2.762
  639SOL     OW 1957   6.137   2.925   2.767
  639SOL    HW1 1958   6.100   2.907   2.679
  639SOL    HW2 1959   6.056   2.923   2.821
  640SOL     OW 1960   3.293   1.183   0.377
  640SOL    HW1 1961   3.332   1.114   0.320
  640SOL    HW2 1962   3.244   1.238   0.312
  641SOL     OW 1963   4.663   2.819   2.128
  641SOL    HW1 1964   4.749   2.836   2.086
  641SOL    HW2 1965   4.635   2.737   2.081
  642SOL     OW 1966   5.828   2.643   2.547
  642SOL    HW1 1967   5.815   2.604   2.635
  642SOL    HW2 1968   5.905   2.702   2.560
  643SOL     OW 1969   5.504   3.606   2.099
  643SOL    HW1 1970   5.413   3.580   2.124
  643SOL    HW2 1971   5.528   3.536   2.036
  644SOL     OW 1972   1.675   3.259   1.960
  644SOL    HW1 1973   1.629   3.343   1.952
  644SOL    HW2 1974   1.606   3.196   1.932
  645SOL     OW 1975   4.768   3.609   2.126
  645SOL    HW1 1976   4.833   3.654   2.184
  645SOL    HW2 1977   4.824   3.548   2.076
  646SOL     OW 1978   5.717   1.980   2.320
  646SOL    HW1 1979   5.728   1.955   2.227
  646SOL    HW2 1980   5.802   1.952   2.358
  647SOL     OW 1981   2.400   1.476   0.072
  647SOL    HW1 1982   2.438   1.390   0.094
  647SOL    HW2 1983   2.363   1.460  -0.016
  648SOL     OW 1984   5.305   3.566   2.708
  648SOL    HW1 1985   5.385   3.512   2.702
  648SOL    HW2 1986   5.244   3.519   2.648
  649SOL     OW 1987   4.761   2.530   2.334
  649SOL    HW1 1988   4.782   2.436   2.354
  649SOL    HW2 1989   4.664   2.525   2.333
  650SOL     OW 1990   5.058   1.993   1.955
  650SOL    HW1 1991   5.134   1.941   1.925
  650SOL    HW2 1992   4.984   1.949   1.909
  651SOL     OW 1993   3.002   1.190   0.011
  651SOL    HW1 1994   2.991   1.155  -0.080
  651SOL    HW2 1995   3.048   1.116   0.055
  652SOL     OW 1996   3.480   0.328   0.244
  652SOL    HW1 1997   3.550   0.288   0.297
  652SOL    HW2 1998   3.511   0.420   0.235
  653SOL     OW 1999   5.147   3.212   2.836
  653SOL    HW1 2000   5.233   3.219   2.789
  653SOL    HW2 2001   5.083   3.228   2.765
  654SOL     OW 2002   5.274   2.365   2.743
  654SOL    HW1 2003   5.249   2.352   2.649
  654SOL    HW2 2004   5.314   2.278   2.763
  655SOL     OW 2005   4.932   1.922   2.342
  655SOL    HW1 2006   4.853   1.924   2.399
  655SOL    HW2 2007   4.915   1.996   2.280
  656SOL     OW 2008   1.462   3.093   1.895
  656SOL    HW1 2009   1.497   3.019   1.949
  656SOL    HW2 2010   1.375   3.108   1.935
  657SOL     OW 2011   4.654   1.843   1.994
  657SOL    HW1 2012   4.721   1.864   1.927
  657SOL    HW2 2013   4.709   1.795   2.060
  658SOL     OW 2014   5.289   2.108   2.305
  658SOL    HW1 2015   5.258   2.144   2.221
  658SOL    HW2 2016   5.384   2.134   2.304
  659SOL     OW 2017   3.239   0.215   0.306
  659SOL    HW1 2018   3.199   0.215   0.218
  659SOL    HW2 2019   3.320   0.267   0.292
  660SOL     OW 2020   5.536   3.427   2.635
  660SOL    HW1 2021   5.559   3.500   2.574
  660SOL    HW2 2022   5.623   3.404   2.671
  661SOL     OW 2023   4.811   3.024   2.568
  661SOL    HW1 2024   4.734   2.997   2.622
  661SOL    HW2 2025   4.773   3.022   2.478
  662SOL     OW 2026   5.592   3.650   2.477
  662SOL    HW1 2027   5.639   3.719   2.428
  662SOL    HW2 2028   5.523   3.703   2.522
  663SOL     OW 2029   5.352   2.347   1.889
  663SOL    HW1 2030   5.322   2.434   1.857
  663SOL    HW2 2031   5.418   2.370   1.957
  664SOL     OW 2032   2.263   0.207   0.177
  664SOL    HW1 2033   2.359   0.210   0.159
  664SOL    HW2 2034   2.247   0.299   0.204
  665SOL     OW 2035   4.925   2.040   3.019
  665SOL    HW1 2036   4.953   1.958   3.061
  665SOL    HW2 2037   4.828   2.039   3.035
  666SOL     OW 2038   5.207   2.305   2.488
  666SOL    HW1 2039   5.169   2.358   2.416
  666SOL    HW2 2040   5.236   2.226   2.440
  667SOL     OW 2041   5.366   1.928   2.602
  667SOL    HW1 2042   5.303   1.916   2.530
  667SOL    HW2 2043   5.342   1.855   2.663
  668SOL     OW 2044   5.722   3.050   2.691
  668SOL    HW1 2045   5.631   3.017   2.695
  668SOL    HW2 2046   5.743   3.037   2.597
  669SOL     OW 2047   5.773   2.510   2.783
  669SOL    HW1 2048   5.709   2.437   2.791
  669SOL    HW2 2049   5.830   2.495   2.861
  670SOL     OW 2050   1.817   2.646   2.251
  670SOL    HW1 2051   1.879   2.610   2.318
  670SOL    HW2 2052   1.823   2.579   2.181
  671SOL     OW 2053   4.831   3.316   1.970
  671SOL    HW1 2054   4.759   3.270   2.017
  671SOL    HW2 2055   4.827   3.274   1.883
  672SOL     OW 2056   1.767   3.176   2.456
  672SOL    HW1 2057   1.860   3.171   2.483
  672SOL    HW2 2058   1.737   3.260   2.493
  673SOL     OW 2059   1.387   2.433   1.905
  673SOL    HW1 2060   1.338   2.405   1.985
  673SOL    HW2 2061   1.480   2.425   1.932
  674SOL     OW 2062   4.884   2.106   2.147
  674SOL    HW1 2063   4.949   2.067   2.086
  674SOL    HW2 2064   4.873   2.195   2.108
  675SOL     OW 2065   3.129   0.982   0.130
  675SOL    HW1 2066   3.073   0.948   0.201
  675SOL    HW2 2067   3.217   0.983   0.172
  676SOL     OW 2068   5.470   3.122   2.976
  676SOL    HW1 2069   5.393   3.129   3.035
  676SOL    HW2 2070   5.433   3.151   2.890
  677SOL     OW 2071   5.897   2.938   2.893
  677SOL    HW1 2072   5.911   3.015   2.950
  677SOL    HW2 2073   5.828   2.970   2.832
  678SOL     OW 2074   3.085   4.148   0.157
  678SOL    HW1 2075   3.122   4.137   0.067
  678SOL    HW2 2076   3.162   4.184   0.205
  679SOL     OW 2077   5.061   2.924   2.256
  679SOL    HW1 2078   5.044   2.893   2.347
  679SOL    HW2 2079   5.142   2.873   2.234
  680SOL     OW 2080   2.616   0.483   0.042
  680SOL    HW1 2081   2.661   0.496   0.128
  680SOL    HW2 2082   2.581   0.393   0.054
  681SOL     OW 2083   3.427   0.108   0.084
  681SOL    HW1 2084   3.454   0.187   0.134
  681SOL    HW2 2085   3.334   0.128   0.062
  682SOL     OW 2086   2.222   1.173   0.181
  682SOL    HW1 2087   2.184   1.251   0.225
  682SOL    HW2 2088   2.313   1.201   0.161
  683SOL     OW 2089   4.685   3.009   2.324
  683SOL    HW1 2090   4.689   3.074   2.253
  683SOL    HW2 2091   4.679   2.926   2.272
  684SOL     OW 2092   4.811   2.418   2.736
  684SOL    HW1 2093   4.830   2.475   2.660
  684SOL    HW2 2094   4.897   2.414   2.782
  685SOL     OW 2095   5.586   3.205   2.270
  685SOL    HW1 2096   5.638   3.284   2.298
  685SOL    HW2 2097   5.496   3.231   2.297
  686SOL     OW 2098   5.666   3.313   2.996
  686SOL    HW1 2099   5.710   3.303   3.083
  686SOL    HW2 2100   5.597   3.244   3.001
  687SOL     OW 2101   5.918   2.496   2.326
  687SOL    HW1 2102   5.872   2.540   2.399
  687SOL    HW2 2103   5.984   2.562   2.301
  688SOL     OW 2104   2.486   1.213   0.109
  688SOL    HW1 2105   2.482   1.160   0.027
  688SOL    HW2 2106   2.582   1.234   0.114
  689SOL     OW 2107   4.997   2.700   2.936
  689SOL    HW1 2108   5.001   2.797   2.926
  689SOL    HW2 2109   4.918   2.689   2.992
  690SOL     OW 2110   5.611   2.724   2.890
  690SOL    HW1 2111   5.527   2.693   2.854
  690SOL    HW2 2112   5.674   2.662   2.851
  691SOL     OW 2113   5.528   2.382   2.102
  691SOL    HW1 2114   5.541   2.308   2.165
  691SOL    HW2 2115   5.485   2.448   2.160
  692SOL     OW 2116   2.492   4.187   0.017
  692SOL    HW1 2117   2.513   4.237   0.099
  692SOL    HW2 2118   2.455   4.105   0.052
  693SOL     OW 2119   2.185   0.920   0.100
  693SOL    HW1 2120   2.245   0.891   0.171
  693SOL    HW2 2121   2.184   1.016   0.116
  694SOL     OW 2122   5.043   2.436   2.870
  694SOL    HW1 2123   5.126   2.423   2.821
  694SOL    HW2 2124   5.040   2.533   2.884
  695SOL     OW 2125   4.702   1.922   2.483
  695SOL    HW1 2126   4.658   2.007   2.506
  695SOL    HW2 2127   4.700   1.876   2.570
  696SOL     OW 2128   1.630   2.270   2.182
  696SOL    HW1 2129   1.665   2.210   2.251
  696SOL    HW2 2130   1.601   2.347   2.235
  697SOL     OW 2131   5.365   2.616   2.794
  697SOL    HW1 2132   5.334   2.630   2.887
  697SOL    HW2 2133   5.337   2.524   2.778
  698SOL     OW 2134   1.534   2.121   1.969
  698SOL    HW1 2135   1.486   2.050   2.015
  698SOL    HW2 2136   1.565   2.178   2.042
  699SOL     OW 2137   5.606   2.679   1.882
  699SOL    HW1 2138   5.644   2.589   1.884
  699SOL    HW2 2139   5.642   2.713   1.798
  700SOL     OW 2140   5.392   3.213   2.726
  700SOL    HW1 2141   5.421   3.135   2.677
  700SOL    HW2 2142   5.441   3.286   2.683
  701SOL     OW 2143   4.665   2.680   2.756
  701SOL    HW1 2144   4.736   2.667   2.690
  701SOL    HW2 2145   4.690   2.616   2.823
  702SOL     OW 2146   4.613   2.356   2.901
  702SOL    HW1 2147   4.589   2.265   2.873
  702SOL    HW2 2148   4.683   2.377   2.835
  703SOL     OW 2149   3.306   4.269   0.273
  703SOL    HW1 2150   3.275   4.349   0.318
  703SOL    HW2 2151   3.363   4.307   0.204
  704SOL     OW 2152   4.338   3.138   2.115
  704SOL    HW1 2153   4.244   3.150   2.138
  704SOL    HW2 2154   4.353   3.045   2.142
  705SOL     OW 2155   4.457   3.592   2.885
  705SOL    HW1 2156   4.421   3.507   2.854
  705SOL    HW2 2157   4.527   3.609   2.819
  706SOL     OW 2158   4.818   3.422   2.801
  706SOL    HW1 2159   4.872   3.496   2.833
  706SOL    HW2 2160   4.881   3.369   2.748
  707SOL     OW 2161   5.255   2.655   3.033
  707SOL    HW1 2162   5.269   2.662   3.129
  707SOL    HW2 2163   5.160   2.670   3.024
  708SOL     OW 2164   4.366   2.447   2.975
  708SOL    HW1 2165   4.456   2.424   2.943
  708SOL    HW2 2166   4.368   2.410   3.064
  709SOL     OW 2167   5.143   2.422   2.242
  709SOL    HW1 2168   5.150   2.348   2.178
  709SOL    HW2 2169   5.073   2.476   2.203
  710SOL     OW 2170   5.931   2.466   2.995
  710SOL    HW1 2171   5.915   2.397   3.062
  710SOL    HW2 2172   6.029   2.465   2.991
  711SOL     OW 2173   2.893   0.114   0.027
  711SOL    HW1 2174   2.848   0.030   0.007
  711SOL    HW2 2175   2.875   0.166  -0.053
  712SOL     OW 2176   3.144   1.328   0.205
  712SOL    HW1 2177   3.095   1.295   0.128
  712SOL    HW2 2178   3.147   1.424   0.188
  713SOL     OW 2179   4.822   2.339   2.023
  713SOL    HW1 2180   4.869   2.422   2.044
  713SOL    HW2 2181   4.732   2.358   2.056
  714SOL     OW 2182   2.357   0.843   0.295
  714SOL    HW1 2183   2.320   0.790   0.369
  714SOL    HW2 2184   2.390   0.774   0.234
  715SOL     OW 2185   3.442   0.746   0.030
  715SOL    HW1 2186   3.447   0.679  -0.040
  715SOL    HW2 2187   3.395   0.818  -0.016
  716SOL     OW 2188   5.681   2.765   2.131
  716SOL    HW1 2189   5.618   2.729   2.193
  716SOL    HW2 2190   5.648   2.734   2.045
  717SOL     OW 2191   6.075   3.597   3.007
  717SOL    HW1 2192   6.156   3.616   2.956
  717SOL    HW2 2193   6.052   3.509   2.972
  718SOL     OW 2194   5.588   3.576   2.954
  718SOL    HW1 2195   5.677   3.614   2.938
  718SOL    HW2 2196   5.610   3.483   2.974
  719SOL     OW 2197   4.431   3.012   2.914
  719SOL    HW1 2198   4.407   3.041   3.004
  719SOL    HW2 2199   4.346   3.013   2.870
  720SOL     OW 2200   1.752   2.087   2.346
  720SOL    HW1 2201   1.808   2.050   2.274
  720SOL    HW2 2202   1.705   2.008   2.377
  721SOL     OW 2203   5.724   3.430   2.350
  721SOL    HW1 2204   5.787   3.466   2.284
  721SOL    HW2 2205   5.671   3.507   2.374
  722SOL     OW 2206   5.611   2.790   2.484
  722SOL    HW1 2207   5.690   2.736   2.501
  722SOL    HW2 2208   5.652   2.870   2.445
  723SOL     OW 2209   2.832   0.913   0.261
  723SOL    HW1 2210   2.754   0.947   0.308
  723SOL    HW2 2211   2.810   0.944   0.171
  724SOL     OW 2212   5.020   3.506   2.001
  724SOL    HW1 2213   5.043   3.508   1.906
  724SOL    HW2 2214   4.961   3.428   2.002
  725SOL     OW 2215   3.756   1.365   0.178
  725SOL    HW1 2216   3.815   1.391   0.106
  725SOL    HW2 2217   3.766   1.437   0.241
  726SOL     OW 2218   6.185   2.060   2.851
  726SOL    HW1 2219   6.215   1.969   2.831
  726SOL    HW2 2220   6.096   2.061   2.811
  727SOL     OW 2221   4.598   2.157   2.564
  727SOL    HW1 2222   4.512   2.189   2.534
  727SOL    HW2 2223   4.586   2.150   2.661
  728SOL     OW 2224   5.580   3.417   1.919
  728SOL    HW1 2225   5.575   3.324   1.947
  728SOL    HW2 2226   5.500   3.425   1.864
  729SOL     OW 2227   2.854   0.673   0.141
  729SOL    HW1 2228   2.898   0.703   0.061
  729SOL    HW2 2229   2.850   0.755   0.193
  730SOL     OW 2230   5.275   2.780   2.190
  730SOL    HW1 2231   5.302   2.782   2.096
  730SOL    HW2 2232   5.319   2.700   2.222
  731SOL     OW 2233   1.509   3.503   1.935
  731SOL    HW1 2234   1.418   3.472   1.918
  731SOL    HW2 2235   1.545   3.510   1.844
  732SOL     OW 2236   2.578   1.010   0.308
  732SOL    HW1 2237   2.543   1.085   0.259
  732SOL    HW2 2238   2.500   0.951   0.313
  733SOL     OW 2239   5.972   3.152   3.049
  733SOL    HW1 2240   6.060   3.155   3.092
  733SOL    HW2 2241   5.914   3.187   3.119
  734SOL     OW 2242   5.459   2.967   2.634
  734SOL    HW1 2243   5.374   2.927   2.658
  734SOL    HW2 2244   5.498   2.899   2.575
  735SOL     OW 2245   5.392   2.123   2.799
  735SOL    HW1 2246   5.388   2.063   2.723
  735SOL    HW2 2247   5.390   2.060   2.873
  736SOL     OW 2248   4.942   3.336   2.390
  736SOL    HW1 2249   4.983   3.289   2.315
  736SOL    HW2 2250   4.847   3.333   2.367
  737SOL     OW 2251   3.793   0.110   0.141
  737SOL    HW1 2252   3.870   0.155   0.180
  737SOL    HW2 2253   3.835   0.030   0.104
  738SOL     OW 2254   4.609   3.202   2.110
  738SOL    HW1 2255   4.514   3.184   2.121
  738SOL    HW2 2256   4.628   3.258   2.188
  739SOL     OW 2257   2.851   4.224   0.282
  739SOL    HW1 2258   2.936   4.205   0.237
  739SOL    HW2 2259   2.878   4.298   0.341
  740SOL     OW 2260   4.514   2.249   1.752
  740SOL    HW1 2261   4.438   2.246   1.810
  740SOL    HW2 2262   4.534   2.345   1.747
  741SOL     OW 2263   3.579   0.596   0.215
  741SOL    HW1 2264   3.518   0.651   0.161
  741SOL    HW2 2265   3.649   0.579   0.149
  742SOL     OW 2266   4.401   2.007   2.293
  742SOL    HW1 2267   4.358   1.963   2.216
  742SOL    HW2 2268   4.484   2.035   2.250
  743SOL     OW 2269   5.540   3.158   1.999
  743SOL    HW1 2270   5.443   3.150   1.994
  743SOL    HW2 2271   5.555   3.159   2.095
  744SOL     OW 2272   2.730   0.486   0.300
  744SOL    HW1 2273   2.780   0.560   0.260
  744SOL    HW2 2274   2.792   0.411   0.285
  745SOL     OW 2275   5.831   3.689   2.909
  745SOL    HW1 2276   5.860   3.737   2.830
  745SOL    HW2 2277   5.914   3.657   2.947
  746SOL     OW 2278   3.761   0.567   0.017
  746SOL    HW1 2279   3.760   0.479  -0.026
  746SOL    HW2 2280   3.745   0.628  -0.058
  747SOL     OW 2281   5.550   2.195   2.306
  747SOL    HW1 2282   5.610   2.119   2.310
  747SOL    HW2 2283   5.579   2.247   2.383
  748SOL     OW 2284   4.853   2.634   2.566
  748SOL    HW1 2285   4.920   2.702   2.545
  748SOL    HW2 2286   4.825   2.604   2.477
  749SOL     OW 2287   3.980   0.636   0.166
  749SOL    HW1 2288   3.926   0.681   0.234
  749SOL    HW2 2289   3.911   0.606   0.104
  750SOL     OW 2290   5.258   3.204   1.976
  750SOL    HW1 2291   5.199   3.228   2.049
  750SOL    HW2 2292   5.264   3.285   1.923
  751SOL     OW 2293   5.221   2.849   2.722
  751SOL    HW1 2294   5.264   2.765   2.746
  751SOL    HW2 2295   5.178   2.875   2.805
  752SOL     OW 2296   5.361   2.772   1.933
  752SOL    HW1 2297   5.356   2.850   1.875
  752SOL    HW2 2298   5.452   2.740   1.917
  753SOL     OW 2299   6.158   3.444   2.669
  753SOL    HW1 2300   6.081   3.440   2.610
  753SOL    HW2 2301   6.123   3.401   2.749
  754SOL     OW 2302   4.477   3.162   2.451
  754SOL    HW1 2303   4.388   3.127   2.464
  754SOL    HW2 2304   4.526   3.085   2.417
  755SOL     OW 2305   3.937   4.227   0.047
  755SOL    HW1 2306   4.022   4.219   0.094
  755SOL    HW2 2307   3.968   4.234  -0.045
  756SOL     OW 2308   4.788   2.270   2.392
  756SOL    HW1 2309   4.809   2.196   2.334
  756SOL    HW2 2310   4.726   2.232   2.456
  757SOL     OW 2311   6.006   3.365   2.884
  757SOL    HW1 2312   5.922   3.356   2.835
  757SOL    HW2 2313   6.003   3.285   2.940
  758SOL     OW 2314   2.526   0.231   0.094
  758SOL    HW1 2315   2.564   0.149   0.131
  758SOL    HW2 2316   2.506   0.205   0.001
  759SOL     OW 2317   5.168   3.458   2.492
  759SOL    HW1 2318   5.163   3.544   2.446
  759SOL    HW2 2319   5.085   3.416   2.465
  760SOL     OW 2320   5.756   2.148   2.978
  760SOL    HW1 2321   5.786   2.074   3.034
  760SOL    HW2 2322   5.702   2.198   3.042
  761SOL     OW 2323   5.387   1.915   2.986
  761SOL    HW1 2324   5.370   1.838   2.931
  761SOL    HW2 2325   5.459   1.883   3.044
  762SOL     OW 2326   5.103   3.193   2.215
  762SOL    HW1 2327   5.085   3.098   2.225
  762SOL    HW2 2328   5.188   3.204   2.260
  763SOL     OW 2329   2.753   1.243   0.113
  763SOL    HW1 2330   2.758   1.305   0.189
  763SOL    HW2 2331   2.844   1.248   0.077
  764SOL     OW 2332   5.735   1.898   2.063
  764SOL    HW1 2333   5.776   1.823   2.017
  764SOL    HW2 2334   5.642   1.866   2.072
  765SOL     OW 2335   5.628   2.338   2.524
  765SOL    HW1 2336   5.576   2.421   2.520
  765SOL    HW2 2337   5.619   2.314   2.618
  766SOL     OW 2338   5.922   2.069   2.773
  766SOL    HW1 2339   5.864   2.105   2.843
  766SOL    HW2 2340   5.917   2.140   2.706
  767SOL     OW 2341   4.406   2.886   2.209
  767SOL    HW1 2342   4.491   2.861   2.169
  767SOL    HW2 2343   4.420   2.862   2.302
  768SOL     OW 2344   5.248   3.513   2.159
  768SOL    HW1 2345   5.171   3.504   2.101
  768SOL    HW2 2346   5.215   3.576   2.227
  769SOL     OW 2347   4.551   3.984   0.967
  769SOL    HW1 2348   4.567   3.950   1.057
  769SOL    HW2 2349   4.456   3.968   0.955
  770SOL     OW 2350   4.369   4.058   0.591
  770SOL    HW1 2351   4.276   4.077   0.564
  770SOL    HW2 2352   4.368   3.961   0.579
  771SOL     OW 2353   1.653   0.066   0.163
  771SOL    HW1 2354   1.748   0.050   0.152
  771SOL    HW2 2355   1.623  -0.018   0.199
  772SOL     OW 2356   4.816   4.095   1.480
  772SOL    HW1 2357   4.893   4.036   1.480
  772SOL    HW2 2358   4.741   4.033   1.484
  773SOL     OW 2359   1.554   3.870   1.459
  773SOL    HW1 2360   1.603   3.950   1.436
  773SOL    HW2 2361   1.511   3.893   1.542
  774SOL     OW 2362   4.477   4.304   0.585
  774SOL    HW1 2363   4.434   4.216   0.589
  774SOL    HW2 2364   4.437   4.348   0.663
  775SOL     OW 2365   0.878   3.760   0.504
  775SOL    HW1 2366   0.907   3.840   0.455
  775SOL    HW2 2367   0.781   3.773   0.508
  776SOL     OW 2368   4.726   3.940   1.776
  776SOL    HW1 2369   4.710   4.025   1.819
  776SOL    HW2 2370   4.637   3.907   1.756
  777SOL     OW 2371   1.261   4.016   0.910
  777SOL    HW1 2372   1.178   3.971   0.935
  777SOL    HW2 2373   1.325   3.971   0.970
  778SOL     OW 2374   1.394   4.204   1.671
  778SOL    HW1 2375   1.415   4.256   1.751
  778SOL    HW2 2376   1.428   4.116   1.694
  779SOL     OW 2377   1.037   4.099   1.162
  779SOL    HW1 2378   0.942   4.096   1.186
  779SOL    HW2 2379   1.041   4.028   1.096
  780SOL     OW 2380   4.380   0.115   0.802
  780SOL    HW1 2381   4.438   0.153   0.870
  780SOL    HW2 2382   4.345   0.195   0.760
  781SOL     OW 2383   0.915   4.068   0.095
  781SOL    HW1 2384   0.848   4.085   0.027
  781SOL    HW2 2385   0.932   3.973   0.081
  782SOL     OW 2386   1.728   4.328   1.796
  782SOL    HW1 2387   1.711   4.313   1.890
  782SOL    HW2 2388   1.723   4.238   1.760
  783SOL     OW 2389   4.854   3.834   0.911
  783SOL    HW1 2390   4.870   3.868   1.001
  783SOL    HW2 2391   4.826   3.913   0.864
  784SOL     OW 2392   1.499   0.100   0.697
  784SOL    HW1 2393   1.551   0.172   0.732
  784SOL    HW2 2394   1.481   0.128   0.606
  785SOL     OW 2395   4.563   3.972   1.490
  785SOL    HW1 2396   4.509   4.043   1.528
  785SOL    HW2 2397   4.542   3.899   1.551
  786SOL     OW 2398   1.376   3.828   0.445
  786SOL    HW1 2399   1.371   3.822   0.347
  786SOL    HW2 2400   1.471   3.835   0.459
  787SOL     OW 2401   1.462   3.937   1.715
  787SOL    HW1 2402   1.469   3.946   1.813
  787SOL    HW2 2403   1.394   3.867   1.707
  788SOL     OW 2404   0.662   3.855   0.085
  788SOL    HW1 2405   0.757   3.834   0.091
  788SOL    HW2 2406   0.623   3.770   0.060
  789SOL     OW 2407   5.110   3.997   1.762
  789SOL    HW1 2408   5.204   3.969   1.766
  789SOL    HW2 2409   5.070   3.937   1.826
  790SOL     OW 2410   1.367   4.289   1.417
  790SOL    HW1 2411   1.374   4.254   1.508
  790SOL    HW2 2412   1.305   4.363   1.429
  791SOL     OW 2413   0.610   3.781   0.488
  791SOL    HW1 2414   0.535   3.775   0.550
  791SOL    HW2 2415   0.577   3.845   0.422
  792SOL     OW 2416   0.277   3.713   0.138
  792SOL    HW1 2417   0.284   3.809   0.146
  792SOL    HW2 2418   0.333   3.681   0.212
  793SOL     OW 2419   0.968   3.974   0.360
  793SOL    HW1 2420   0.957   4.018   0.275
  793SOL    HW2 2421   1.053   4.010   0.391
  794SOL     OW 2422   4.477   4.322   1.420
  794SOL    HW1 2423   4.570   4.310   1.390
  794SOL    HW2 2424   4.474   4.419   1.433
  795SOL     OW 2425   4.873   3.932   1.165
  795SOL    HW1 2426   4.896   3.860   1.228
  795SOL    HW2 2427   4.777   3.939   1.182
  796SOL     OW 2428   1.029   3.751   0.737
  796SOL    HW1 2429   0.972   3.756   0.657
  796SOL    HW2 2430   0.986   3.680   0.789
  797SOL     OW 2431   1.453   4.235   0.982
  797SOL    HW1 2432   1.382   4.187   1.028
  797SOL    HW2 2433   1.510   4.263   1.056
  798SOL     OW 2434   0.511   3.944   0.296
  798SOL    HW1 2435   0.571   3.923   0.222
  798SOL    HW2 2436   0.429   3.966   0.249
  799SOL     OW 2437   5.264   3.787   1.411
  799SOL    HW1 2438   5.272   3.756   1.319
  799SOL    HW2 2439   5.351   3.827   1.425
  800SOL     OW 2440   1.298   4.074   1.254
  800SOL    HW1 2441   1.321   4.152   1.307
  800SOL    HW2 2442   1.206   4.093   1.226
  801SOL     OW 2443   4.831   4.304   0.872
  801SOL    HW1 2444   4.804   4.320   0.780
  801SOL    HW2 2445   4.862   4.393   0.899
  802SOL     OW 2446   5.365   3.911   1.786
  802SOL    HW1 2447   5.410   3.978   1.731
  802SOL    HW2 2448   5.425   3.836   1.778
  803SOL     OW 2449   4.890   3.736   1.731
  803SOL    HW1 2450   4.836   3.695   1.661
  803SOL    HW2 2451   4.838   3.818   1.746
  804SOL     OW 2452   4.608   3.909   1.225
  804SOL    HW1 2453   4.587   3.938   1.316
  804SOL    HW2 2454   4.574   3.817   1.227
  805SOL     OW 2455   0.775   4.320   0.959
  805SOL    HW1 2456   0.709   4.268   0.910
  805SOL    HW2 2457   0.731   4.408   0.957
  806SOL     OW 2458   4.710   3.763   0.622
  806SOL    HW1 2459   4.668   3.847   0.646
  806SOL    HW2 2460   4.680   3.704   0.694
  807SOL     OW 2461   1.519   4.099   0.557
  807SOL    HW1 2462   1.567   4.015   0.541
  807SOL    HW2 2463   1.498   4.126   0.466
  808SOL     OW 2464   1.578   3.966   0.132
  808SOL    HW1 2465   1.507   3.901   0.141
  808SOL    HW2 2466   1.545   4.037   0.188
  809SOL     OW 2467   4.652   4.220   1.057
  809SOL    HW1 2468   4.620   4.136   1.019
  809SOL    HW2 2469   4.716   4.249   0.990
  810SOL     OW 2470   5.478   4.099   1.625
  810SOL    HW1 2471   5.414   4.174   1.625
  810SOL    HW2 2472   5.561   4.145   1.645
  811SOL     OW 2473   1.179   3.899   1.447
  811SOL    HW1 2474   1.164   3.975   1.507
  811SOL    HW2 2475   1.231   3.940   1.376
  812SOL     OW 2476   4.408   4.315   1.149
  812SOL    HW1 2477   4.496   4.285   1.118
  812SOL    HW2 2478   4.413   4.297   1.244
  813SOL     OW 2479   4.411   4.163   1.624
  813SOL    HW1 2480   4.439   4.220   1.549
  813SOL    HW2 2481   4.334   4.215   1.656
  814SOL     OW 2482   0.743   4.294   0.243
  814SOL    HW1 2483   0.777   4.205   0.257
  814SOL    HW2 2484   0.706   4.317   0.331
  815SOL     OW 2485   1.614   4.306   1.192
  815SOL    HW1 2486   1.603   4.240   1.262
  815SOL    HW2 2487   1.700   4.281   1.153
  816SOL     OW 2488   5.097   4.103   1.172
  816SOL    HW1 2489   5.021   4.042   1.176
  816SOL    HW2 2490   5.064   4.173   1.115
  817SOL     OW 2491   0.931   3.794   0.073
  817SOL    HW1 2492   0.945   3.732  -0.001
  817SOL    HW2 2493   1.000   3.765   0.135
  818SOL     OW 2494   1.648   3.864   0.515
  818SOL    HW1 2495   1.727   3.856   0.456
  818SOL    HW2 2496   1.646   3.774   0.555
  819SOL     OW 2497   1.818   3.889   0.989
  819SOL    HW1 2498   1.841   3.798   0.959
  819SOL    HW2 2499   1.741   3.911   0.936
  820SOL     OW 2500   4.615   4.002   0.704
  820SOL    HW1 2501   4.528   4.028   0.667
  820SOL    HW2 2502   4.595   3.999   0.800
  821SOL     OW 2503   1.037   3.887   0.984
  821SOL    HW1 2504   1.027   3.844   0.897
  821SOL    HW2 2505   1.007   3.817   1.045
  822SOL     OW 2506   1.738   4.078   1.424
  822SOL    HW1 2507   1.804   4.149   1.412
  822SOL    HW2 2508   1.774   4.008   1.365
  823SOL     OW 2509   5.037   3.922   1.504
  823SOL    HW1 2510   5.120   3.885   1.469
  823SOL    HW2 2511   5.063   3.950   1.593
  824SOL     OW 2512   4.341   4.014   0.086
  824SOL    HW1 2513   4.286   4.090   0.112
  824SOL    HW2 2514   4.318   4.004  -0.007
  825SOL     OW 2515   4.297   3.833   0.287
  825SOL    HW1 2516   4.309   3.906   0.223
  825SOL    HW2 2517   4.320   3.756   0.233
  826SOL     OW 2518   5.066   4.274   1.749
  826SOL    HW1 2519   4.975   4.283   1.715
  826SOL    HW2 2520   5.077   4.178   1.755
  827SOL     OW 2521   1.216   4.057   0.455
  827SOL    HW1 2522   1.265   3.975   0.474
  827SOL    HW2 2523   1.217   4.104   0.540
  828SOL     OW 2524   1.710   4.072   1.697
  828SOL    HW1 2525   1.720   4.074   1.600
  828SOL    HW2 2526   1.633   4.013   1.708
  829SOL     OW 2527   1.828   3.887   1.261
  829SOL    HW1 2528   1.842   3.791   1.266
  829SOL    HW2 2529   1.820   3.900   1.164
  830SOL     OW 2530   0.436   4.117   0.501
  830SOL    HW1 2531   0.479   4.047   0.449
  830SOL    HW2 2532   0.399   4.070   0.578
  831SOL     OW 2533   4.721   4.291   1.310
  831SOL    HW1 2534   4.771   4.224   1.362
  831SOL    HW2 2535   4.712   4.248   1.223
  832SOL     OW 2536   1.446   3.910   1.079
  832SOL    HW1 2537   1.458   3.818   1.111
  832SOL    HW2 2538   1.409   3.954   1.158
  833SOL     OW 2539   0.979   3.681   1.161
  833SOL    HW1 2540   0.920   3.605   1.160
  833SOL    HW2 2541   1.062   3.642   1.127
  834SOL     OW 2542   1.344   3.811   0.167
  834SOL    HW1 2543   1.350   3.818   0.070
  834SOL    HW2 2544   1.259   3.766   0.179
  835SOL     OW 2545   1.227   4.187   0.709
  835SOL    HW1 2546   1.155   4.249   0.732
  835SOL    HW2 2547   1.221   4.122   0.782
  836SOL     OW 2548   1.584   3.964   0.847
  836SOL    HW1 2549   1.540   3.959   0.934
  836SOL    HW2 2550   1.534   3.900   0.796
  837SOL     OW 2551   4.543   3.992   2.968
  837SOL    HW1 2552   4.597   3.967   2.891
  837SOL    HW2 2553   4.465   3.933   2.959
  838SOL     OW 2554   4.366   4.055   2.506
  838SOL    HW1 2555   4.308   4.010   2.570
  838SOL    HW2 2556   4.347   4.006   2.423
  839SOL     OW 2557   1.610   0.003   2.095
  839SOL    HW1 2558   1.700   0.033   2.120
  839SOL    HW2 2559   1.604  -0.083   2.141
  840SOL     OW 2560   5.958   4.127   2.609
  840SOL    HW1 2561   5.881   4.141   2.550
  840SOL    HW2 2562   5.940   4.190   2.680
  841SOL     OW 2563   3.846   1.626   0.314
  841SOL    HW1 2564   3.873   1.647   0.222
  841SOL    HW2 2565   3.931   1.612   0.359
  842SOL     OW 2566   4.484   4.303   2.516
  842SOL    HW1 2567   4.433   4.220   2.520
  842SOL    HW2 2568   4.439   4.360   2.581
  843SOL     OW 2569   5.150   3.684   2.344
  843SOL    HW1 2570   5.201   3.767   2.345
  843SOL    HW2 2571   5.059   3.717   2.333
  844SOL     OW 2572   5.607   4.115   2.759
  844SOL    HW1 2573   5.518   4.077   2.766
  844SOL    HW2 2574   5.656   4.055   2.819
  845SOL     OW 2575   5.343   4.141   3.016
  845SOL    HW1 2576   5.250   4.126   3.042
  845SOL    HW2 2577   5.353   4.079   2.941
  846SOL     OW 2578   4.359   0.155   2.676
  846SOL    HW1 2579   4.368   0.244   2.637
  846SOL    HW2 2580   4.264   0.137   2.659
  847SOL     OW 2581   5.188   3.997   2.089
  847SOL    HW1 2582   5.261   3.999   2.026
  847SOL    HW2 2583   5.130   3.929   2.051
  848SOL     OW 2584   4.718   4.002   2.757
  848SOL    HW1 2585   4.777   3.930   2.788
  848SOL    HW2 2586   4.774   4.081   2.769
  849SOL     OW 2587   5.813   0.097   2.572
  849SOL    HW1 2588   5.817   0.050   2.657
  849SOL    HW2 2589   5.862   0.177   2.595
  850SOL     OW 2590   5.740   3.833   2.330
  850SOL    HW1 2591   5.740   3.802   2.237
  850SOL    HW2 2592   5.824   3.796   2.363
  851SOL     OW 2593   5.014   3.806   1.962
  851SOL    HW1 2594   5.037   3.721   2.003
  851SOL    HW2 2595   4.970   3.774   1.880
  852SOL     OW 2596   3.485   2.113   0.240
  852SOL    HW1 2597   3.562   2.124   0.298
  852SOL    HW2 2598   3.436   2.196   0.255
  853SOL     OW 2599   4.901   3.777   2.297
  853SOL    HW1 2600   4.835   3.766   2.369
  853SOL    HW2 2601   4.877   3.862   2.258
  854SOL     OW 2602   4.588   3.793   2.046
  854SOL    HW1 2603   4.649   3.869   2.049
  854SOL    HW2 2604   4.648   3.721   2.074
  855SOL     OW 2605   5.287   3.914   2.341
  855SOL    HW1 2606   5.254   3.957   2.261
  855SOL    HW2 2607   5.377   3.954   2.349
  856SOL     OW 2608   2.166   2.097   0.166
  856SOL    HW1 2609   2.254   2.063   0.187
  856SOL    HW2 2610   2.173   2.191   0.192
  857SOL     OW 2611   2.758   1.744   0.070
  857SOL    HW1 2612   2.751   1.692  -0.013
  857SOL    HW2 2613   2.666   1.740   0.102
  858SOL     OW 2614   5.385   3.801   2.590
  858SOL    HW1 2615   5.328   3.828   2.516
  858SOL    HW2 2616   5.338   3.724   2.628
  859SOL     OW 2617   5.829   4.282   2.801
  859SOL    HW1 2618   5.745   4.235   2.812
  859SOL    HW2 2619   5.865   4.284   2.892
  860SOL     OW 2620   4.816   3.964   2.084
  860SOL    HW1 2621   4.887   3.914   2.041
  860SOL    HW2 2622   4.805   4.040   2.024
  861SOL     OW 2623   3.154   1.598   0.151
  861SOL    HW1 2624   3.172   1.593   0.055
  861SOL    HW2 2625   3.235   1.639   0.187
  862SOL     OW 2626   3.420   1.917   0.070
  862SOL    HW1 2627   3.445   1.993   0.127
  862SOL    HW2 2628   3.336   1.947   0.031
  863SOL     OW 2629   4.826   4.254   2.779
  863SOL    HW1 2630   4.807   4.299   2.694
  863SOL    HW2 2631   4.915   4.288   2.799
  864SOL     OW 2632   2.488   1.722   0.136
  864SOL    HW1 2633   2.450   1.770   0.060
  864SOL    HW2 2634   2.463   1.629   0.114
  865SOL     OW 2635   5.079   0.032   2.826
  865SOL    HW1 2636   5.158   0.035   2.770
  865SOL    HW2 2637   5.034   0.116   2.801
  866SOL     OW 2638   4.692   3.745   2.468
  866SOL    HW1 2639   4.670   3.838   2.488
  866SOL    HW2 2640   4.683   3.703   2.556
  867SOL     OW 2641   5.897   4.097   2.222
  867SOL    HW1 2642   5.969   4.041   2.259
  867SOL    HW2 2643   5.827   4.083   2.287
  868SOL     OW 2644   1.486   3.979   1.978
  868SOL    HW1 2645   1.453   3.895   2.016
  868SOL    HW2 2646   1.516   4.027   2.057
  869SOL     OW 2647   4.592   4.254   2.935
  869SOL    HW1 2648   4.575   4.158   2.937
  869SOL    HW2 2649   4.670   4.261   2.877
  870SOL     OW 2650   3.356   1.754   0.280
  870SOL    HW1 2651   3.299   1.816   0.327
  870SOL    HW2 2652   3.387   1.808   0.204
  871SOL     OW 2653   4.329   0.003   2.963
  871SOL    HW1 2654   4.424  -0.012   2.946
  871SOL    HW2 2655   4.321  -0.029   3.055
  872SOL     OW 2656   5.074   4.259   2.127
  872SOL    HW1 2657   5.113   4.171   2.129
  872SOL    HW2 2658   5.041   4.271   2.218
  873SOL     OW 2659   5.938   4.284   3.055
  873SOL    HW1 2660   5.910   4.228   3.128
  873SOL    HW2 2661   6.028   4.248   3.036
  874SOL     OW 2662   5.068   4.126   3.053
  874SOL    HW1 2663   5.023   4.045   3.086
  874SOL    HW2 2664   5.042   4.127   2.960
  875SOL     OW 2665   1.755   3.927   2.320
  875SOL    HW1 2666   1.808   3.903   2.242
  875SOL    HW2 2667   1.722   3.841   2.352
  876SOL     OW 2668   6.145   3.877   2.858
  876SOL    HW1 2669   6.182   3.790   2.832
  876SOL    HW2 2670   6.063   3.882   2.805
  877SOL     OW 2671   4.632   4.002   2.505
  877SOL    HW1 2672   4.539   4.029   2.514
  877SOL    HW2 2673   4.664   4.010   2.597
  878SOL     OW 2674   5.388   3.959   2.815
  878SOL    HW1 2675   5.385   3.916   2.728
  878SOL    HW2 2676   5.379   3.880   2.873
  879SOL     OW 2677   3.872   1.912   0.231
  879SOL    HW1 2678   3.963   1.948   0.235
  879SOL    HW2 2679   3.882   1.845   0.161
  880SOL     OW 2680   2.910   1.625   0.264
  880SOL    HW1 2681   2.997   1.618   0.220
  880SOL    HW2 2682   2.859   1.674   0.197
  881SOL     OW 2683   4.432   4.126   1.902
  881SOL    HW1 2684   4.383   4.048   1.935
  881SOL    HW2 2685   4.419   4.121   1.806
  882SOL     OW 2686   4.360   3.896   2.275
  882SOL    HW1 2687   4.340   3.913   2.181
  882SOL    HW2 2688   4.450   3.862   2.271
  883SOL     OW 2689   5.538   4.014   2.358
  883SOL    HW1 2690   5.607   3.946   2.347
  883SOL    HW2 2691   5.587   4.082   2.407
  884SOL     OW 2692   3.913   1.692   0.059
  884SOL    HW1 2693   3.912   1.599   0.032
  884SOL    HW2 2694   3.943   1.733  -0.024
  885SOL     OW 2695   4.669   4.117   2.261
  885SOL    HW1 2696   4.730   4.060   2.211
  885SOL    HW2 2697   4.668   4.076   2.350
  886SOL     OW 2698   2.470   2.112   0.139
  886SOL    HW1 2699   2.568   2.111   0.137
  886SOL    HW2 2700   2.451   2.089   0.046
  887SOL     OW 2701   5.732   3.958   2.938
  887SOL    HW1 2702   5.741   3.864   2.962
  887SOL    HW2 2703   5.686   3.995   3.015
  888SOL     OW 2704   5.366   3.721   2.946
  888SOL    HW1 2705   5.315   3.669   2.882
  888SOL    HW2 2706   5.449   3.667   2.951
  889SOL     OW 2707   5.734   3.740   2.073
  889SOL    HW1 2708   5.778   3.669   2.024
  889SOL    HW2 2709   5.644   3.702   2.083
  890SOL     OW 2710   5.702   4.181   2.507
  890SOL    HW1 2711   5.722   4.276   2.515
  890SOL    HW2 2712   5.662   4.160   2.593
  891SOL     OW 2713   5.908   3.889   2.735
  891SOL    HW1 2714   5.843   3.929   2.796
  891SOL    HW2 2715   5.926   3.964   2.675
  892SOL     OW 2716   2.087   0.661   0.158
  892SOL    HW1 2717   1.992   0.654   0.178
  892SOL    HW2 2718   2.097   0.754   0.133
  893SOL     OW 2719   2.077   0.302   1.033
  893SOL    HW1 2720   2.108   0.267   1.118
  893SOL    HW2 2721   1.983   0.274   1.032
  894SOL     OW 2722   1.859   0.312   0.694
  894SOL    HW1 2723   1.781   0.336   0.747
  894SOL    HW2 2724   1.818   0.295   0.607
  895SOL     OW 2725   2.444   1.318   1.249
  895SOL    HW1 2726   2.364   1.316   1.194
  895SOL    HW2 2727   2.453   1.414   1.263
  896SOL     OW 2728   3.466   1.570   0.683
  896SOL    HW1 2729   3.431   1.536   0.768
  896SOL    HW2 2730   3.382   1.599   0.641
  897SOL     OW 2731   2.989   0.709   0.696
  897SOL    HW1 2732   3.029   0.798   0.690
  897SOL    HW2 2733   2.939   0.716   0.779
  898SOL     OW 2734   2.591   1.126   1.121
  898SOL    HW1 2735   2.535   1.180   1.179
  898SOL    HW2 2736   2.622   1.196   1.060
  899SOL     OW 2737   2.764   0.718   1.793
  899SOL    HW1 2738   2.799   0.779   1.860
  899SOL    HW2 2739   2.771   0.774   1.713
  900SOL     OW 2740   2.521   0.910   0.736
  900SOL    HW1 2741   2.597   0.944   0.787
  900SOL    HW2 2742   2.471   0.992   0.717
  901SOL     OW 2743   2.556   1.143   1.844
  901SOL    HW1 2744   2.591   1.228   1.880
  901SOL    HW2 2745   2.481   1.176   1.790
  902SOL     OW 2746   2.227   1.372   1.084
  902SOL    HW1 2747   2.171   1.314   1.031
  902SOL    HW2 2748   2.266   1.432   1.017
  903SOL     OW 2749   3.289   1.505   1.370
  903SOL    HW1 2750   3.346   1.583   1.390
  903SOL    HW2 2751   3.215   1.518   1.432
  904SOL     OW 2752   2.235   0.295   1.546
  904SOL    HW1 2753   2.329   0.275   1.530
  904SOL    HW2 2754   2.228   0.281   1.642
  905SOL     OW 2755   3.432   0.517   0.702
  905SOL    HW1 2756   3.336   0.508   0.691
  905SOL    HW2 2757   3.453   0.574   0.625
  906SOL     OW 2758   2.119   1.711   0.450
  906SOL    HW1 2759   2.133   1.788   0.508
  906SOL    HW2 2760   2.211   1.689   0.424
  907SOL     OW 2761   2.957   1.322   1.674
  907SOL    HW1 2762   3.009   1.272   1.609
  907SOL    HW2 2763   2.909   1.249   1.719
  908SOL     OW 2764   1.988   1.492   0.558
  908SOL    HW1 2765   2.031   1.572   0.523
  908SOL    HW2 2766   1.958   1.521   0.646
  909SOL     OW 2767   2.153   1.074   0.870
  909SOL    HW1 2768   2.174   0.983   0.895
  909SOL    HW2 2769   2.098   1.103   0.945
  910SOL     OW 2770   2.400   1.845   1.380
  910SOL    HW1 2771   2.331   1.822   1.446
  910SOL    HW2 2772   2.454   1.910   1.429
  911SOL     OW 2773   3.404   0.170   1.371
  911SOL    HW1 2774   3.343   0.094   1.376
  911SOL    HW2 2775   3.389   0.212   1.457
  912SOL     OW 2776   1.978   0.700   0.579
  912SOL    HW1 2777   1.965   0.606   0.595
  912SOL    HW2 2778   1.970   0.737   0.669
  913SOL     OW 2779   1.950   1.567   0.023
  913SOL    HW1 2780   1.928   1.482   0.066
  913SOL    HW2 2781   1.941   1.629   0.098
  914SOL     OW 2782   3.552   0.959   0.687
  914SOL    HW1 2783   3.576   0.915   0.605
  914SOL    HW2 2784   3.556   1.053   0.662
  915SOL     OW 2785   2.067   0.750   1.589
  915SOL    HW1 2786   2.162   0.758   1.608
  915SOL    HW2 2787   2.033   0.834   1.624
  916SOL     OW 2788   2.493   1.372   0.752
  916SOL    HW1 2789   2.452   1.286   0.729
  916SOL    HW2 2790   2.513   1.409   0.664
  917SOL     OW 2791   3.086   1.200   1.468
  917SOL    HW1 2792   3.099   1.138   1.393
  917SOL    HW2 2793   3.173   1.195   1.512
  918SOL     OW 2794   2.716   0.208   0.600
  918SOL    HW1 2795   2.699   0.304   0.605
  918SOL    HW2 2796   2.637   0.175   0.554
  919SOL     OW 2797   2.056   0.999   1.302
  919SOL    HW1 2798   2.135   0.943   1.297
  919SOL    HW2 2799   2.048   1.033   1.212
  920SOL     OW 2800   2.994   1.781   1.629
  920SOL    HW1 2801   3.017   1.850   1.564
  920SOL    HW2 2802   3.023   1.700   1.585
  921SOL     OW 2803   2.190   0.265   1.819
  921SOL    HW1 2804   2.238   0.333   1.870
  921SOL    HW2 2805   2.162   0.204   1.891
  922SOL     OW 2806   3.362   1.472   0.914
  922SOL    HW1 2807   3.292   1.484   0.982
  922SOL    HW2 2808   3.354   1.377   0.893
  923SOL     OW 2809   3.562   1.731   0.471
  923SOL    HW1 2810   3.487   1.723   0.410
  923SOL    HW2 2811   3.533   1.674   0.545
  924SOL     OW 2812   3.141   0.413   0.950
  924SOL    HW1 2813   3.055   0.368   0.958
  924SOL    HW2 2814   3.195   0.362   1.012
  925SOL     OW 2815   2.653   0.637   1.437
  925SOL    HW1 2816   2.618   0.596   1.518
  925SOL    HW2 2817   2.633   0.571   1.368
  926SOL     OW 2818   3.237   0.460   1.657
  926SOL    HW1 2819   3.241   0.498   1.747
  926SOL    HW2 2820   3.298   0.385   1.664
  927SOL     OW 2821   2.810   0.897   1.585
  927SOL    HW1 2822   2.868   0.837   1.534
  927SOL    HW2 2823   2.764   0.945   1.512
  928SOL     OW 2824   2.876   0.450   1.198
  928SOL    HW1 2825   2.781   0.469   1.209
  928SOL    HW2 2826   2.876   0.398   1.116
  929SOL     OW 2827   2.986   0.700   0.422
  929SOL    HW1 2828   2.979   0.695   0.519
  929SOL    HW2 2829   2.930   0.776   0.401
  930SOL     OW 2830   1.957   0.800   0.828
  930SOL    HW1 2831   2.043   0.809   0.873
  930SOL    HW2 2832   1.903   0.867   0.874
  931SOL     OW 2833   1.952   1.884   1.584
  931SOL    HW1 2834   1.954   1.849   1.675
  931SOL    HW2 2835   1.857   1.897   1.569
  932SOL     OW 2836   3.634   0.592   1.759
  932SOL    HW1 2837   3.569   0.663   1.743
  932SOL    HW2 2838   3.717   0.636   1.733
  933SOL     OW 2839   3.202   1.200   0.624
  933SOL    HW1 2840   3.245   1.192   0.535
  933SOL    HW2 2841   3.131   1.262   0.605
  934SOL     OW 2842   2.506   0.259   0.981
  934SOL    HW1 2843   2.467   0.278   1.068
  934SOL    HW2 2844   2.467   0.330   0.926
  935SOL     OW 2845   2.969   1.577   0.526
  935SOL    HW1 2846   2.954   1.600   0.432
  935SOL    HW2 2847   2.882   1.601   0.565
  936SOL     OW 2848   2.217   1.787   0.868
  936SOL    HW1 2849   2.259   1.700   0.875
  936SOL    HW2 2850   2.291   1.846   0.893
  937SOL     OW 2851   3.663   1.010   0.932
  937SOL    HW1 2852   3.620   0.994   0.845
  937SOL    HW2 2853   3.587   1.036   0.987
  938SOL     OW 2854   3.049   1.533   1.512
  938SOL    HW1 2855   3.033   1.471   1.584
  938SOL    HW2 2856   2.991   1.499   1.442
  939SOL     OW 2857   3.315   0.824   0.754
  939SOL    HW1 2858   3.324   0.761   0.827
  939SOL    HW2 2859   3.406   0.857   0.742
  940SOL     OW 2860   2.349   1.279   1.727
  940SOL    HW1 2861   2.311   1.279   1.637
  940SOL    HW2 2862   2.268   1.298   1.778
  941SOL     OW 2863   1.996   0.143   1.657
  941SOL    HW1 2864   1.987   0.213   1.590
  941SOL    HW2 2865   2.058   0.184   1.719
  942SOL     OW 2866   2.394   1.691   0.391
  942SOL    HW1 2867   2.415   1.776   0.432
  942SOL    HW2 2868   2.427   1.703   0.300
  943SOL     OW 2869   2.068   1.780   1.215
  943SOL    HW1 2870   2.135   1.713   1.236
  943SOL    HW2 2871   2.050   1.764   1.121
  944SOL     OW 2872   2.820   1.699   0.894
  944SOL    HW1 2873   2.902   1.646   0.897
  944SOL    HW2 2874   2.781   1.666   0.811
  945SOL     OW 2875   2.247   0.694   0.495
  945SOL    HW1 2876   2.246   0.598   0.515
  945SOL    HW2 2877   2.155   0.718   0.516
  946SOL     OW 2878   3.406   0.240   1.696
  946SOL    HW1 2879   3.404   0.264   1.791
  946SOL    HW2 2880   3.404   0.144   1.702
  947SOL     OW 2881   2.569   0.299   1.756
  947SOL    HW1 2882   2.659   0.264   1.774
  947SOL    HW2 2883   2.518   0.247   1.820
  948SOL     OW 2884   2.697   1.520   1.202
  948SOL    HW1 2885   2.680   1.467   1.121
  948SOL    HW2 2886   2.774   1.475   1.240
  949SOL     OW 2887   3.192   0.601   1.427
  949SOL    HW1 2888   3.219   0.567   1.514
  949SOL    HW2 2889   3.223   0.694   1.427
  950SOL     OW 2890   2.652   1.352   0.980
  950SOL    HW1 2891   2.743   1.354   0.944
  950SOL    HW2 2892   2.598   1.364   0.899
  951SOL     OW 2893   2.780   0.506   0.869
  951SOL    HW1 2894   2.751   0.491   0.777
  951SOL    HW2 2895   2.808   0.418   0.898
  952SOL     OW 2896   2.503   0.119   0.456
  952SOL    HW1 2897   2.434   0.098   0.522
  952SOL    HW2 2898   2.477   0.208   0.427
  953SOL     OW 2899   2.941   0.715   1.433
  953SOL    HW1 2900   2.880   0.639   1.435
  953SOL    HW2 2901   3.028   0.673   1.424
  954SOL     OW 2902   3.041   1.552   0.789
  954SOL    HW1 2903   3.021   1.559   0.694
  954SOL    HW2 2904   3.132   1.585   0.792
  955SOL     OW 2905   2.358   1.138   0.699
  955SOL    HW1 2906   2.289   1.120   0.765
  955SOL    HW2 2907   2.308   1.131   0.616
  956SOL     OW 2908   3.112   1.896   0.609
  956SOL    HW1 2909   3.109   1.979   0.558
  956SOL    HW2 2910   3.039   1.910   0.672
  957SOL     OW 2911   1.986   0.571   1.396
  957SOL    HW1 2912   2.076   0.561   1.359
  957SOL    HW2 2913   2.001   0.641   1.463
  958SOL     OW 2914   2.410   0.315   1.243
  958SOL    HW1 2915   2.448   0.276   1.323
  958SOL    HW2 2916   2.321   0.276   1.243
  959SOL     OW 2917   2.681   0.480   0.606
  959SOL    HW1 2918   2.607   0.543   0.619
  959SOL    HW2 2919   2.710   0.504   0.517
  960SOL     OW 2920   2.832   0.082   0.806
  960SOL    HW1 2921   2.789   0.127   0.730
  960SOL    HW2 2922   2.893   0.022   0.762
  961SOL     OW 2923   3.371   1.214   0.837
  961SOL    HW1 2924   3.302   1.198   0.769
  961SOL    HW2 2925   3.451   1.216   0.783
  962SOL     OW 2926   3.281   0.656   0.974
  962SOL    HW1 2927   3.232   0.573   0.966
  962SOL    HW2 2928   3.350   0.634   1.040
  963SOL     OW 2929   3.794   0.732   0.346
  963SOL    HW1 2930   3.802   0.706   0.440
  963SOL    HW2 2931   3.713   0.686   0.318
  964SOL     OW 2932   3.588   1.234   0.670
  964SOL    HW1 2933   3.685   1.228   0.672
  964SOL    HW2 2934   3.573   1.311   0.615
  965SOL     OW 2935   2.458   0.376   0.387
  965SOL    HW1 2936   2.542   0.415   0.358
  965SOL    HW2 2937   2.395   0.416   0.325
  966SOL     OW 2938   3.572   1.241   1.507
  966SOL    HW1 2939   3.661   1.203   1.497
  966SOL    HW2 2940   3.595   1.330   1.540
  967SOL     OW 2941   2.890   1.359   1.350
  967SOL    HW1 2942   2.804   1.332   1.388
  967SOL    HW2 2943   2.952   1.299   1.396
  968SOL     OW 2944   3.466   1.608   1.665
  968SOL    HW1 2945   3.453   1.657   1.582
  968SOL    HW2 2946   3.547   1.558   1.644
  969SOL     OW 2947   3.030   1.276   1.129
  969SOL    HW1 2948   2.968   1.308   1.197
  969SOL    HW2 2949   2.982   1.293   1.046
  970SOL     OW 2950   3.450   1.099   1.075
  970SOL    HW1 2951   3.444   1.173   1.139
  970SOL    HW2 2952   3.404   1.136   0.997
  971SOL     OW 2953   2.731   0.173   1.388
  971SOL    HW1 2954   2.750   0.141   1.299
  971SOL    HW2 2955   2.821   0.177   1.425
  972SOL     OW 2956   2.824   1.099   1.767
  972SOL    HW1 2957   2.730   1.110   1.791
  972SOL    HW2 2958   2.819   1.031   1.698
  973SOL     OW 2959   2.280   0.841   1.294
  973SOL    HW1 2960   2.349   0.850   1.363
  973SOL    HW2 2961   2.260   0.746   1.298
  974SOL     OW 2962   3.110   0.381   1.303
  974SOL    HW1 2963   3.142   0.464   1.346
  974SOL    HW2 2964   3.025   0.412   1.263
  975SOL     OW 2965   1.927   1.554   1.347
  975SOL    HW1 2966   1.918   1.645   1.316
  975SOL    HW2 2967   2.025   1.543   1.345
  976SOL     OW 2968   2.193   1.119   0.478
  976SOL    HW1 2969   2.159   1.198   0.432
  976SOL    HW2 2970   2.233   1.069   0.405
  977SOL     OW 2971   2.401   0.486   0.859
  977SOL    HW1 2972   2.410   0.522   0.769
  977SOL    HW2 2973   2.459   0.546   0.909
  978SOL     OW 2974   3.190   1.495   1.119
  978SOL    HW1 2975   3.227   1.499   1.209
  978SOL    HW2 2976   3.138   1.413   1.123
  979SOL     OW 2977   3.484   0.652   0.470
  979SOL    HW1 2978   3.398   0.687   0.439
  979SOL    HW2 2979   3.522   0.622   0.387
  980SOL     OW 2980   2.190   1.518   1.307
  980SOL    HW1 2981   2.197   1.462   1.227
  980SOL    HW2 2982   2.283   1.549   1.315
  981SOL     OW 2983   2.335   0.750   1.660
  981SOL    HW1 2984   2.387   0.799   1.593
  981SOL    HW2 2985   2.397   0.678   1.682
  982SOL     OW 2986   3.485   0.804   1.703
  982SOL    HW1 2987   3.392   0.834   1.701
  982SOL    HW2 2988   3.520   0.851   1.624
  983SOL     OW 2989   2.795   0.163   1.819
  983SOL    HW1 2990   2.876   0.187   1.772
  983SOL    HW2 2991   2.783   0.069   1.796
  984SOL     OW 2992   2.464   4.299   1.659
  984SOL    HW1 2993   2.415   4.228   1.613
  984SOL    HW2 2994   2.462   4.370   1.593
  985SOL     OW 2995   2.436   0.896   1.076
  985SOL    HW1 2996   2.488   0.978   1.087
  985SOL    HW2 2997   2.385   0.892   1.158
  986SOL     OW 2998   3.104   0.852   1.055
  986SOL    HW1 2999   3.026   0.819   1.009
  986SOL    HW2 3000   3.174   0.792   1.022
  987SOL     OW 3001   3.088   0.502   0.247
  987SOL    HW1 3002   3.035   0.421   0.254
  987SOL    HW2 3003   3.041   0.563   0.306
  988SOL     OW 3004   2.163   0.219   1.288
  988SOL    HW1 3005   2.165   0.254   1.379
  988SOL    HW2 3006   2.169   0.123   1.304
  989SOL     OW 3007   1.870   1.295   1.277
  989SOL    HW1 3008   1.905   1.251   1.357
  989SOL    HW2 3009   1.889   1.389   1.296
  990SOL     OW 3010   2.547   0.659   1.003
  990SOL    HW1 3011   2.623   0.678   0.946
  990SOL    HW2 3012   2.513   0.748   1.023
  991SOL     OW 3013   3.600   0.985   1.876
  991SOL    HW1 3014   3.556   0.916   1.823
  991SOL    HW2 3015   3.533   1.004   1.943
  992SOL     OW 3016   2.305   0.082   0.639
  992SOL    HW1 3017   2.236   0.140   0.675
  992SOL    HW2 3018   2.254   0.006   0.603
  993SOL     OW 3019   2.862   0.745   0.957
  993SOL    HW1 3020   2.837   0.749   1.052
  993SOL    HW2 3021   2.838   0.653   0.934
  994SOL     OW 3022   2.846   1.531   1.814
  994SOL    HW1 3023   2.825   1.603   1.753
  994SOL    HW2 3024   2.876   1.460   1.754
  995SOL     OW 3025   3.693   1.482   1.565
  995SOL    HW1 3026   3.732   1.511   1.480
  995SOL    HW2 3027   3.767   1.504   1.626
  996SOL     OW 3028   2.220   0.930   1.836
  996SOL    HW1 3029   2.288   0.955   1.900
  996SOL    HW2 3030   2.266   0.864   1.781
  997SOL     OW 3031   2.908   1.346   0.900
  997SOL    HW1 3032   2.911   1.274   0.834
  997SOL    HW2 3033   2.960   1.417   0.857
  998SOL     OW 3034   2.198   0.819   0.958
  998SOL    HW1 3035   2.288   0.842   0.986
  998SOL    HW2 3036   2.195   0.724   0.980
  999SOL     OW 3037   2.190   0.547   1.015
  999SOL    HW1 3038   2.139   0.464   1.016
  999SOL    HW2 3039   2.262   0.524   0.953
 1000SOL     OW 3040   2.995   0.325   1.684
 1000SOL    HW1 3041   2.952   0.381   1.752
 1000SOL    HW2 3042   3.078   0.373   1.671
 1001SOL     OW 3043   3.005   0.183   1.452
 1001SOL    HW1 3044   2.998   0.226   1.540
 1001SOL    HW2 3045   3.046   0.255   1.399
 1002SOL     OW 3046   1.863   1.343   0.174
 1002SOL    HW1 3047   1.772   1.372   0.152
 1002SOL    HW2 3048   1.848   1.250   0.198
 1003SOL     OW 3049   1.963   1.756   0.953
 1003SOL    HW1 3050   1.930   1.688   0.891
 1003SOL    HW2 3051   2.053   1.773   0.917
 1004SOL     OW 3052   2.345   1.541   0.908
 1004SOL    HW1 3053   2.420   1.599   0.935
 1004SOL    HW2 3054   2.391   1.481   0.846
 1005SOL     OW 3055   2.784   0.777   1.211
 1005SOL    HW1 3056   2.860   0.783   1.271
 1005SOL    HW2 3057   2.718   0.738   1.269
 1006SOL     OW 3058   1.832   0.642   1.175
 1006SOL    HW1 3059   1.903   0.644   1.109
 1006SOL    HW2 3060   1.880   0.616   1.256
 1007SOL     OW 3061   2.039   0.524   1.734
 1007SOL    HW1 3062   2.110   0.474   1.693
 1007SOL    HW2 3063   2.039   0.607   1.682
 1008SOL     OW 3064   3.241   0.917   1.669
 1008SOL    HW1 3065   3.261   1.012   1.661
 1008SOL    HW2 3066   3.232   0.893   1.575
 1009SOL     OW 3067   3.466   0.601   1.169
 1009SOL    HW1 3068   3.421   0.567   1.248
 1009SOL    HW2 3069   3.549   0.551   1.169
 1010SOL     OW 3070   2.075   1.561   1.684
 1010SOL    HW1 3071   2.050   1.631   1.747
 1010SOL    HW2 3072   2.100   1.488   1.742
 1011SOL     OW 3073   2.608   0.497   1.212
 1011SOL    HW1 3074   2.539   0.428   1.211
 1011SOL    HW2 3075   2.585   0.551   1.134
 1012SOL     OW 3076   2.686   1.721   1.538
 1012SOL    HW1 3077   2.678   1.651   1.472
 1012SOL    HW2 3078   2.725   1.794   1.488
 1013SOL     OW 3079   2.280   0.482   0.211
 1013SOL    HW1 3080   2.337   0.543   0.161
 1013SOL    HW2 3081   2.197   0.533   0.208
 1014SOL     OW 3082   1.967   1.151   1.499
 1014SOL    HW1 3083   1.981   1.098   1.580
 1014SOL    HW2 3084   2.005   1.092   1.430
 1015SOL     OW 3085   3.117   1.042   1.243
 1015SOL    HW1 3086   3.113   0.974   1.173
 1015SOL    HW2 3087   3.097   1.123   1.192
 1016SOL     OW 3088   3.253   0.710   0.341
 1016SOL    HW1 3089   3.169   0.727   0.386
 1016SOL    HW2 3090   3.230   0.635   0.284
 1017SOL     OW 3091   3.638   1.754   1.163
 1017SOL    HW1 3092   3.704   1.775   1.094
 1017SOL    HW2 3093   3.618   1.660   1.140
 1018SOL     OW 3094   3.125   1.762   1.091
 1018SOL    HW1 3095   3.216   1.796   1.083
 1018SOL    HW2 3096   3.140   1.666   1.098
 1019SOL     OW 3097   1.983   1.141   1.069
 1019SOL    HW1 3098   1.938   1.200   1.132
 1019SOL    HW2 3099   1.908   1.100   1.021
 1020SOL     OW 3100   2.547   1.698   1.766
 1020SOL    HW1 3101   2.480   1.768   1.759
 1020SOL    HW2 3102   2.602   1.714   1.687
 1021SOL     OW 3103   3.575   0.198   0.572
 1021SOL    HW1 3104   3.585   0.150   0.487
 1021SOL    HW2 3105   3.490   0.164   0.606
 1022SOL     OW 3106   3.231   1.656   0.587
 1022SOL    HW1 3107   3.156   1.616   0.541
 1022SOL    HW2 3108   3.199   1.749   0.597
 1023SOL     OW 3109   1.987   1.779   1.831
 1023SOL    HW1 3110   1.948   1.708   1.887
 1023SOL    HW2 3111   2.035   1.832   1.898
 1024SOL     OW 3112   3.100   0.955   0.679
 1024SOL    HW1 3113   3.180   0.906   0.707
 1024SOL    HW2 3114   3.140   1.040   0.653
 1025SOL     OW 3115   2.644   1.291   1.437
 1025SOL    HW1 3116   2.616   1.345   1.515
 1025SOL    HW2 3117   2.567   1.303   1.378
 1026SOL     OW 3118   3.454   1.721   1.408
 1026SOL    HW1 3119   3.523   1.723   1.340
 1026SOL    HW2 3120   3.430   1.816   1.414
 1027SOL     OW 3121   3.684   0.213   1.012
 1027SOL    HW1 3122   3.705   0.146   0.944
 1027SOL    HW2 3123   3.602   0.250   0.974
 1028SOL     OW 3124   2.126   0.260   0.752
 1028SOL    HW1 3125   2.040   0.297   0.726
 1028SOL    HW2 3126   2.128   0.278   0.848
 1029SOL     OW 3127   2.679   1.030   1.387
 1029SOL    HW1 3128   2.683   1.037   1.290
 1029SOL    HW2 3129   2.670   1.124   1.413
 1030SOL     OW 3130   2.208   1.304   1.500
 1030SOL    HW1 3131   2.198   1.382   1.444
 1030SOL    HW2 3132   2.120   1.264   1.499
 1031SOL     OW 3133   3.445   1.307   1.258
 1031SOL    HW1 3134   3.497   1.279   1.335
 1031SOL    HW2 3135   3.384   1.372   1.298
 1032SOL     OW 3136   2.899   1.132   0.741
 1032SOL    HW1 3137   2.831   1.079   0.786
 1032SOL    HW2 3138   2.964   1.065   0.716
 1033SOL     OW 3139   2.903   0.271   0.987
 1033SOL    HW1 3140   2.878   0.208   0.916
 1033SOL    HW2 3141   2.910   0.209   1.062
 1034SOL     OW 3142   2.547   1.491   0.508
 1034SOL    HW1 3143   2.600   1.455   0.434
 1034SOL    HW2 3144   2.484   1.549   0.462
 1035SOL     OW 3145   2.071   1.330   0.354
 1035SOL    HW1 3146   1.999   1.350   0.291
 1035SOL    HW2 3147   2.046   1.386   0.430
 1036SOL     OW 3148   1.982   0.985   1.712
 1036SOL    HW1 3149   1.908   0.987   1.776
 1036SOL    HW2 3150   2.060   0.977   1.771
 1037SOL     OW 3151   2.497   0.225   1.503
 1037SOL    HW1 3152   2.583   0.203   1.460
 1037SOL    HW2 3153   2.528   0.260   1.589
 1038SOL     OW 3154   1.941   0.389   0.054
 1038SOL    HW1 3155   1.895   0.350  -0.023
 1038SOL    HW2 3156   2.029   0.404   0.018
 1039SOL     OW 3157   3.248   0.865   1.404
 1039SOL    HW1 3158   3.190   0.924   1.352
 1039SOL    HW2 3159   3.331   0.872   1.352
 1040SOL     OW 3160   1.911   0.223   0.270
 1040SOL    HW1 3161   1.926   0.288   0.200
 1040SOL    HW2 3162   1.923   0.139   0.223
 1041SOL     OW 3163   2.490   0.851   1.462
 1041SOL    HW1 3164   2.549   0.927   1.445
 1041SOL    HW2 3165   2.554   0.777   1.455
 1042SOL     OW 3166   3.385   1.851   1.071
 1042SOL    HW1 3167   3.416   1.905   0.997
 1042SOL    HW2 3168   3.467   1.816   1.107
 1043SOL     OW 3169   2.551   0.568   1.686
 1043SOL    HW1 3170   2.620   0.613   1.738
 1043SOL    HW2 3171   2.554   0.477   1.721
 1044SOL     OW 3172   3.316   1.178   1.616
 1044SOL    HW1 3173   3.319   1.205   1.710
 1044SOL    HW2 3174   3.404   1.206   1.584
 1045SOL     OW 3175   2.209   1.779   1.568
 1045SOL    HW1 3176   2.121   1.821   1.559
 1045SOL    HW2 3177   2.184   1.689   1.595
 1046SOL     OW 3178   3.465   0.883   1.243
 1046SOL    HW1 3179   3.477   0.802   1.190
 1046SOL    HW2 3180   3.459   0.953   1.175
 1047SOL     OW 3181   3.105   0.250   0.543
 1047SOL    HW1 3182   3.165   0.247   0.466
 1047SOL    HW2 3183   3.131   0.333   0.587
 1048SOL     OW 3184   2.478   0.659   0.649
 1048SOL    HW1 3185   2.499   0.750   0.681
 1048SOL    HW2 3186   2.402   0.677   0.591
 1049SOL     OW 3187   3.591   0.397   1.562
 1049SOL    HW1 3188   3.598   0.469   1.627
 1049SOL    HW2 3189   3.531   0.335   1.609
 1050SOL     OW 3190   3.553   0.949   1.492
 1050SOL    HW1 3191   3.550   1.046   1.490
 1050SOL    HW2 3192   3.535   0.926   1.399
 1051SOL     OW 3193   2.540   1.717   0.952
 1051SOL    HW1 3194   2.518   1.811   0.940
 1051SOL    HW2 3195   2.637   1.716   0.951
 1052SOL     OW 3196   2.731   0.981   0.900
 1052SOL    HW1 3197   2.784   0.903   0.922
 1052SOL    HW2 3198   2.701   1.013   0.987
 1053SOL     OW 3199   3.702   1.577   0.835
 1053SOL    HW1 3200   3.628   1.571   0.772
 1053SOL    HW2 3201   3.667   1.532   0.913
 1054SOL     OW 3202   2.114   1.345   1.851
 1054SOL    HW1 3203   2.025   1.309   1.859
 1054SOL    HW2 3204   2.138   1.355   1.945
 1055SOL     OW 3205   1.982   1.116   0.657
 1055SOL    HW1 3206   2.036   1.101   0.736
 1055SOL    HW2 3207   2.049   1.112   0.586
 1056SOL     OW 3208   2.553   1.441   1.638
 1056SOL    HW1 3209   2.481   1.390   1.680
 1056SOL    HW2 3210   2.552   1.523   1.690
 1057SOL     OW 3211   3.671   0.172   1.312
 1057SOL    HW1 3212   3.575   0.162   1.329
 1057SOL    HW2 3213   3.677   0.146   1.218
 1058SOL     OW 3214   2.255   0.438   0.572
 1058SOL    HW1 3215   2.328   0.398   0.523
 1058SOL    HW2 3216   2.228   0.368   0.633
 1059SOL     OW 3217   3.577   1.502   1.079
 1059SOL    HW1 3218   3.495   1.493   1.026
 1059SOL    HW2 3219   3.571   1.426   1.138
 1060SOL     OW 3220   2.237   0.568   1.281
 1060SOL    HW1 3221   2.300   0.496   1.294
 1060SOL    HW2 3222   2.221   0.564   1.184
 1061SOL     OW 3223   2.732   1.641   0.644
 1061SOL    HW1 3224   2.706   1.731   0.617
 1061SOL    HW2 3225   2.660   1.587   0.605
 1062SOL     OW 3226   3.309   0.306   1.139
 1062SOL    HW1 3227   3.358   0.245   1.196
 1062SOL    HW2 3228   3.237   0.332   1.200
 1063SOL     OW 3229   2.921   0.091   1.186
 1063SOL    HW1 3230   2.917  -0.005   1.169
 1063SOL    HW2 3231   2.969   0.095   1.270
 1064SOL     OW 3232   2.450   1.592   1.287
 1064SOL    HW1 3233   2.444   1.685   1.315
 1064SOL    HW2 3234   2.541   1.587   1.251
 1065SOL     OW 3235   3.160   0.485   0.687
 1065SOL    HW1 3236   3.102   0.564   0.681
 1065SOL    HW2 3237   3.147   0.458   0.780
 1066SOL     OW 3238   3.465   0.327   0.905
 1066SOL    HW1 3239   3.403   0.341   0.978
 1066SOL    HW2 3240   3.450   0.404   0.846
 1067SOL     OW 3241   1.871   1.080   0.286
 1067SOL    HW1 3242   1.966   1.094   0.284
 1067SOL    HW2 3243   1.865   0.983   0.303
 1068SOL     OW 3244   2.090   0.605   1.993
 1068SOL    HW1 3245   2.000   0.605   2.030
 1068SOL    HW2 3246   2.071   0.590   1.899
 1069SOL     OW 3247   2.068   0.323   2.889
 1069SOL    HW1 3248   2.111   0.260   2.949
 1069SOL    HW2 3249   1.980   0.283   2.880
 1070SOL     OW 3250   1.841   0.485   2.524
 1070SOL    HW1 3251   1.749   0.501   2.552
 1070SOL    HW2 3252   1.830   0.405   2.469
 1071SOL     OW 3253   2.433   1.310   3.044
 1071SOL    HW1 3254   2.355   1.335   2.991
 1071SOL    HW2 3255   2.449   1.391   3.095
 1072SOL     OW 3256   3.460   1.561   2.553
 1072SOL    HW1 3257   3.405   1.535   2.630
 1072SOL    HW2 3258   3.391   1.571   2.484
 1073SOL     OW 3259   3.008   0.700   2.537
 1073SOL    HW1 3260   3.057   0.783   2.527
 1073SOL    HW2 3261   2.955   0.719   2.617
 1074SOL     OW 3262   3.660   0.606   2.044
 1074SOL    HW1 3263   3.637   0.606   1.950
 1074SOL    HW2 3264   3.605   0.533   2.079
 1075SOL     OW 3265   2.587   1.113   2.947
 1075SOL    HW1 3266   2.522   1.172   2.990
 1075SOL    HW2 3267   2.625   1.176   2.882
 1076SOL     OW 3268   2.557   0.967   2.508
 1076SOL    HW1 3269   2.627   0.973   2.576
 1076SOL    HW2 3270   2.497   1.039   2.534
 1077SOL     OW 3271   2.212   1.413   2.913
 1077SOL    HW1 3272   2.137   1.367   2.871
 1077SOL    HW2 3273   2.244   1.472   2.842
 1078SOL     OW 3274   3.427   0.515   2.524
 1078SOL    HW1 3275   3.331   0.497   2.528
 1078SOL    HW2 3276   3.431   0.569   2.442
 1079SOL     OW 3277   2.098   1.744   2.314
 1079SOL    HW1 3278   2.122   1.814   2.378
 1079SOL    HW2 3279   2.171   1.750   2.250
 1080SOL     OW 3280   2.096   1.473   2.346
 1080SOL    HW1 3281   2.091   1.570   2.355
 1080SOL    HW2 3282   2.066   1.441   2.433
 1081SOL     OW 3283   2.182   1.113   2.726
 1081SOL    HW1 3284   2.190   1.021   2.757
 1081SOL    HW2 3285   2.124   1.153   2.794
 1082SOL     OW 3286   2.423   0.989   2.036
 1082SOL    HW1 3287   2.474   1.034   1.966
 1082SOL    HW2 3288   2.476   1.014   2.115
 1083SOL     OW 3289   1.993   0.697   2.429
 1083SOL    HW1 3290   1.943   0.621   2.464
 1083SOL    HW2 3291   1.991   0.758   2.506
 1084SOL     OW 3292   3.684   1.774   2.166
 1084SOL    HW1 3293   3.764   1.773   2.222
 1084SOL    HW2 3294   3.690   1.863   2.127
 1085SOL     OW 3295   1.911   1.573   1.980
 1085SOL    HW1 3296   1.893   1.479   1.996
 1085SOL    HW2 3297   1.887   1.614   2.065
 1086SOL     OW 3298   3.574   0.946   2.463
 1086SOL    HW1 3299   3.619   0.887   2.400
 1086SOL    HW2 3300   3.539   1.015   2.404
 1087SOL     OW 3301   3.510   1.138   2.277
 1087SOL    HW1 3302   3.596   1.119   2.234
 1087SOL    HW2 3303   3.531   1.224   2.320
 1088SOL     OW 3304   2.501   1.408   2.578
 1088SOL    HW1 3305   2.460   1.319   2.576
 1088SOL    HW2 3306   2.489   1.434   2.484
 1089SOL     OW 3307   0.963   3.402   0.099
 1089SOL    HW1 3308   1.025   3.338   0.138
 1089SOL    HW2 3309   0.927   3.445   0.179
 1090SOL     OW 3310   2.669   0.043   2.363
 1090SOL    HW1 3311   2.721   0.124   2.347
 1090SOL    HW2 3312   2.578   0.077   2.374
 1091SOL     OW 3313   3.393   1.023   2.060
 1091SOL    HW1 3314   3.342   0.950   2.099
 1091SOL    HW2 3315   3.429   1.067   2.138
 1092SOL     OW 3316   3.292   1.468   2.744
 1092SOL    HW1 3317   3.251   1.468   2.833
 1092SOL    HW2 3318   3.286   1.373   2.721
 1093SOL     OW 3319   3.479   1.854   2.394
 1093SOL    HW1 3320   3.471   1.794   2.318
 1093SOL    HW2 3321   3.497   1.794   2.467
 1094SOL     OW 3322   2.445   0.664   2.131
 1094SOL    HW1 3323   2.447   0.756   2.101
 1094SOL    HW2 3324   2.378   0.666   2.201
 1095SOL     OW 3325   3.160   0.334   2.798
 1095SOL    HW1 3326   3.066   0.306   2.791
 1095SOL    HW2 3327   3.177   0.316   2.892
 1096SOL     OW 3328   3.426   1.697   2.164
 1096SOL    HW1 3329   3.523   1.715   2.156
 1096SOL    HW2 3330   3.409   1.651   2.079
 1097SOL     OW 3331   2.913   0.681   2.279
 1097SOL    HW1 3332   2.935   0.677   2.375
 1097SOL    HW2 3333   2.828   0.633   2.276
 1098SOL     OW 3334   1.974   0.872   2.639
 1098SOL    HW1 3335   2.059   0.863   2.685
 1098SOL    HW2 3336   1.925   0.930   2.699
 1099SOL     OW 3337   2.759   0.329   2.050
 1099SOL    HW1 3338   2.806   0.389   1.990
 1099SOL    HW2 3339   2.752   0.250   1.993
 1100SOL     OW 3340   3.260   1.154   2.407
 1100SOL    HW1 3341   3.341   1.154   2.354
 1100SOL    HW2 3342   3.208   1.225   2.365
 1101SOL     OW 3343   2.380   0.247   2.760
 1101SOL    HW1 3344   2.304   0.225   2.706
 1101SOL    HW2 3345   2.386   0.344   2.749
 1102SOL     OW 3346   2.872   1.473   2.345
 1102SOL    HW1 3347   2.851   1.546   2.284
 1102SOL    HW2 3348   2.830   1.505   2.427
 1103SOL     OW 3349   2.201   1.820   2.736
 1103SOL    HW1 3350   2.249   1.735   2.736
 1103SOL    HW2 3351   2.272   1.885   2.747
 1104SOL     OW 3352   3.714   1.077   2.662
 1104SOL    HW1 3353   3.661   1.034   2.592
 1104SOL    HW2 3354   3.642   1.108   2.722
 1105SOL     OW 3355   2.169   0.960   2.155
 1105SOL    HW1 3356   2.253   0.975   2.108
 1105SOL    HW2 3357   2.155   0.865   2.142
 1106SOL     OW 3358   3.376   0.815   2.605
 1106SOL    HW1 3359   3.410   0.725   2.615
 1106SOL    HW2 3360   3.452   0.862   2.566
 1107SOL     OW 3361   3.051   1.758   2.109
 1107SOL    HW1 3362   2.960   1.741   2.140
 1107SOL    HW2 3363   3.065   1.685   2.045
 1108SOL     OW 3364   3.533   1.367   1.957
 1108SOL    HW1 3365   3.491   1.454   1.948
 1108SOL    HW2 3366   3.462   1.309   1.924
 1109SOL     OW 3367   2.320   1.793   2.155
 1109SOL    HW1 3368   2.368   1.836   2.228
 1109SOL    HW2 3369   2.393   1.747   2.110
 1110SOL     OW 3370   3.294   0.156   2.316
 1110SOL    HW1 3371   3.342   0.101   2.252
 1110SOL    HW2 3372   3.329   0.124   2.401
 1111SOL     OW 3373   2.843   1.705   2.749
 1111SOL    HW1 3374   2.927   1.660   2.728
 1111SOL    HW2 3375   2.783   1.658   2.688
 1112SOL     OW 3376   2.255   0.660   2.328
 1112SOL    HW1 3377   2.258   0.564   2.349
 1112SOL    HW2 3378   2.165   0.682   2.356
 1113SOL     OW 3379   2.483   0.087   1.918
 1113SOL    HW1 3380   2.528   0.026   1.979
 1113SOL    HW2 3381   2.472   0.032   1.838
 1114SOL     OW 3382   2.676   1.302   2.782
 1114SOL    HW1 3383   2.766   1.337   2.771
 1114SOL    HW2 3384   2.626   1.348   2.713
 1115SOL     OW 3385   2.785   0.512   2.754
 1115SOL    HW1 3386   2.765   0.499   2.659
 1115SOL    HW2 3387   2.823   0.425   2.776
 1116SOL     OW 3388   2.390   0.103   2.351
 1116SOL    HW1 3389   2.365   0.011   2.326
 1116SOL    HW2 3390   2.377   0.150   2.266
 1117SOL     OW 3391   3.311   1.217   1.886
 1117SOL    HW1 3392   3.336   1.141   1.943
 1117SOL    HW2 3393   3.232   1.250   1.932
 1118SOL     OW 3394   2.114   0.101   2.038
 1118SOL    HW1 3395   2.190   0.144   2.083
 1118SOL    HW2 3396   2.125   0.009   2.067
 1119SOL     OW 3397   2.826   0.262   2.307
 1119SOL    HW1 3398   2.804   0.286   2.215
 1119SOL    HW2 3399   2.922   0.281   2.310
 1120SOL     OW 3400   3.065   1.587   2.642
 1120SOL    HW1 3401   3.085   1.656   2.576
 1120SOL    HW2 3402   3.154   1.562   2.671
 1121SOL     OW 3403   2.375   1.169   2.548
 1121SOL    HW1 3404   2.311   1.150   2.619
 1121SOL    HW2 3405   2.318   1.166   2.469
 1122SOL     OW 3406   3.109   1.800   2.471
 1122SOL    HW1 3407   3.154   1.872   2.423
 1122SOL    HW2 3408   3.034   1.849   2.510
 1123SOL     OW 3409   2.896   0.492   1.877
 1123SOL    HW1 3410   2.853   0.574   1.849
 1123SOL    HW2 3411   2.953   0.520   1.951
 1124SOL     OW 3412   4.103   2.698   0.179
 1124SOL    HW1 3413   4.196   2.725   0.166
 1124SOL    HW2 3414   4.098   2.684   0.275
 1125SOL     OW 3415   2.747   0.460   2.489
 1125SOL    HW1 3416   2.698   0.505   2.418
 1125SOL    HW2 3417   2.775   0.379   2.444
 1126SOL     OW 3418   2.763   0.072   2.645
 1126SOL    HW1 3419   2.741   0.055   2.553
 1126SOL    HW2 3420   2.687   0.036   2.692
 1127SOL     OW 3421   3.254   1.207   2.678
 1127SOL    HW1 3422   3.165   1.172   2.690
 1127SOL    HW2 3423   3.268   1.190   2.582
 1128SOL     OW 3424   3.674   0.787   2.248
 1128SOL    HW1 3425   3.742   0.742   2.303
 1128SOL    HW2 3426   3.677   0.732   2.167
 1129SOL     OW 3427   2.388   1.460   2.066
 1129SOL    HW1 3428   2.302   1.415   2.078
 1129SOL    HW2 3429   2.435   1.402   2.005
 1130SOL     OW 3430   3.578   1.352   2.415
 1130SOL    HW1 3431   3.666   1.346   2.456
 1130SOL    HW2 3432   3.539   1.429   2.460
 1131SOL     OW 3433   3.240   0.537   1.916
 1131SOL    HW1 3434   3.174   0.534   1.988
 1131SOL    HW2 3435   3.295   0.459   1.937
 1132SOL     OW 3436   2.347   0.217   2.113
 1132SOL    HW1 3437   2.403   0.177   2.043
 1132SOL    HW2 3438   2.341   0.310   2.082
 1133SOL     OW 3439   3.501   1.162   2.804
 1133SOL    HW1 3440   3.482   1.183   2.897
 1133SOL    HW2 3441   3.413   1.173   2.762
 1134SOL     OW 3442   2.593   1.054   2.248
 1134SOL    HW1 3443   2.575   1.021   2.338
 1134SOL    HW2 3444   2.676   1.005   2.226
 1135SOL     OW 3445   0.183   2.996   0.094
 1135SOL    HW1 3446   0.237   2.945   0.157
 1135SOL    HW2 3447   0.100   2.945   0.095
 1136SOL     OW 3448   4.084   3.696   0.126
 1136SOL    HW1 3449   4.081   3.759   0.199
 1136SOL    HW2 3450   4.179   3.675   0.122
 1137SOL     OW 3451   2.196   1.161   2.340
 1137SOL    HW1 3452   2.192   1.227   2.269
 1137SOL    HW2 3453   2.185   1.078   2.289
 1138SOL     OW 3454   2.373   0.523   2.732
 1138SOL    HW1 3455   2.394   0.584   2.658
 1138SOL    HW2 3456   2.445   0.545   2.795
 1139SOL     OW 3457   3.120   1.366   2.301
 1139SOL    HW1 3458   3.175   1.445   2.324
 1139SOL    HW2 3459   3.031   1.398   2.324
 1140SOL     OW 3460   3.123   1.420   2.961
 1140SOL    HW1 3461   3.120   1.346   3.025
 1140SOL    HW2 3462   3.052   1.396   2.898
 1141SOL     OW 3463   3.430   0.656   2.294
 1141SOL    HW1 3464   3.360   0.708   2.251
 1141SOL    HW2 3465   3.508   0.711   2.277
 1142SOL     OW 3466   4.350   3.633   0.112
 1142SOL    HW1 3467   4.352   3.612   0.016
 1142SOL    HW2 3468   4.445   3.653   0.127
 1143SOL     OW 3469   2.464   0.866   2.914
 1143SOL    HW1 3470   2.505   0.954   2.920
 1143SOL    HW2 3471   2.422   0.857   3.002
 1144SOL     OW 3472   3.122   0.765   2.944
 1144SOL    HW1 3473   3.093   0.837   3.004
 1144SOL    HW2 3474   3.182   0.812   2.885
 1145SOL     OW 3475   3.051   0.524   2.108
 1145SOL    HW1 3476   3.069   0.452   2.172
 1145SOL    HW2 3477   3.005   0.588   2.165
 1146SOL     OW 3478   3.986   3.470   0.029
 1146SOL    HW1 3479   4.054   3.414   0.073
 1146SOL    HW2 3480   4.011   3.558   0.066
 1147SOL     OW 3481   2.564   0.596   2.907
 1147SOL    HW1 3482   2.647   0.579   2.858
 1147SOL    HW2 3483   2.554   0.693   2.901
 1148SOL     OW 3484   2.194   0.036   2.533
 1148SOL    HW1 3485   2.267   0.067   2.477
 1148SOL    HW2 3486   2.241  -0.026   2.592
 1149SOL     OW 3487   3.506   0.415   2.165
 1149SOL    HW1 3488   3.553   0.352   2.223
 1149SOL    HW2 3489   3.468   0.478   2.228
 1150SOL     OW 3490   2.892   0.757   2.782
 1150SOL    HW1 3491   2.964   0.748   2.847
 1150SOL    HW2 3492   2.853   0.667   2.782
 1151SOL     OW 3493   3.376   0.303   1.958
 1151SOL    HW1 3494   3.342   0.219   1.992
 1151SOL    HW2 3495   3.430   0.335   2.033
 1152SOL     OW 3496   3.164   0.803   1.903
 1152SOL    HW1 3497   3.197   0.712   1.891
 1152SOL    HW2 3498   3.192   0.846   1.819
 1153SOL     OW 3499   2.945   1.366   2.758
 1153SOL    HW1 3500   2.963   1.282   2.711
 1153SOL    HW2 3501   2.980   1.434   2.697
 1154SOL     OW 3502   2.204   0.847   2.796
 1154SOL    HW1 3503   2.299   0.850   2.818
 1154SOL    HW2 3504   2.180   0.759   2.830
 1155SOL     OW 3505   2.154   0.577   2.878
 1155SOL    HW1 3506   2.120   0.486   2.887
 1155SOL    HW2 3507   2.232   0.561   2.821
 1156SOL     OW 3508   1.884   1.295   2.020
 1156SOL    HW1 3509   1.791   1.317   1.997
 1156SOL    HW2 3510   1.874   1.206   2.060
 1157SOL     OW 3511   6.270   1.806   2.814
 1157SOL    HW1 3512   6.233   1.739   2.752
 1157SOL    HW2 3513   6.363   1.809   2.785
 1158SOL     OW 3514   2.350   1.582   2.735
 1158SOL    HW1 3515   2.422   1.647   2.744
 1158SOL    HW2 3516   2.393   1.515   2.679
 1159SOL     OW 3517   6.216   0.617   2.979
 1159SOL    HW1 3518   6.302   0.621   2.935
 1159SOL    HW2 3519   6.240   0.594   3.070
 1160SOL     OW 3520   2.678   0.546   2.227
 1160SOL    HW1 3521   2.688   0.470   2.167
 1160SOL    HW2 3522   2.596   0.588   2.195
 1161SOL     OW 3523   2.313   0.458   1.992
 1161SOL    HW1 3524   2.377   0.522   2.028
 1161SOL    HW2 3525   2.231   0.510   2.001
 1162SOL     OW 3526   3.238   0.816   2.167
 1162SOL    HW1 3527   3.156   0.814   2.217
 1162SOL    HW2 3528   3.206   0.808   2.075
 1163SOL     OW 3529   3.557   1.675   2.958
 1163SOL    HW1 3530   3.637   1.728   2.943
 1163SOL    HW2 3531   3.580   1.593   2.914
 1164SOL     OW 3532   6.319   1.239   2.865
 1164SOL    HW1 3533   6.278   1.259   2.951
 1164SOL    HW2 3534   6.252   1.180   2.825
 1165SOL     OW 3535   3.670   0.239   2.300
 1165SOL    HW1 3536   3.710   0.220   2.212
 1165SOL    HW2 3537   3.690   0.156   2.347
 1166SOL     OW 3538   3.263   1.595   2.364
 1166SOL    HW1 3539   3.309   1.630   2.285
 1166SOL    HW2 3540   3.202   1.668   2.386
 1167SOL     OW 3541   3.148   0.932   2.524
 1167SOL    HW1 3542   3.230   0.890   2.558
 1167SOL    HW2 3543   3.186   1.005   2.470
 1168SOL     OW 3544   2.551   1.680   2.037
 1168SOL    HW1 3545   2.561   1.680   1.940
 1168SOL    HW2 3546   2.501   1.597   2.050
 1169SOL     OW 3547   3.640   0.228   2.865
 1169SOL    HW1 3548   3.675   0.157   2.810
 1169SOL    HW2 3549   3.564   0.259   2.812
 1170SOL     OW 3550   2.081   0.376   2.615
 1170SOL    HW1 3551   2.005   0.434   2.598
 1170SOL    HW2 3552   2.085   0.373   2.712
 1171SOL     OW 3553   3.095   1.552   1.933
 1171SOL    HW1 3554   3.098   1.460   1.962
 1171SOL    HW2 3555   3.010   1.556   1.886
 1172SOL     OW 3556   2.815   0.921   2.189
 1172SOL    HW1 3557   2.847   0.915   2.097
 1172SOL    HW2 3558   2.851   0.839   2.227
 1173SOL     OW 3559   3.373   1.593   1.920
 1173SOL    HW1 3560   3.276   1.585   1.910
 1173SOL    HW2 3561   3.402   1.606   1.828
 1174SOL     OW 3562   2.989   1.115   2.658
 1174SOL    HW1 3563   2.901   1.077   2.675
 1174SOL    HW2 3564   3.031   1.043   2.606
 1175SOL     OW 3565   2.895   0.261   2.799
 1175SOL    HW1 3566   2.853   0.195   2.740
 1175SOL    HW2 3567   2.874   0.225   2.887
 1176SOL     OW 3568   2.496   1.476   2.321
 1176SOL    HW1 3569   2.564   1.424   2.275
 1176SOL    HW2 3570   2.433   1.491   2.248
 1177SOL     OW 3571   2.138   1.343   2.124
 1177SOL    HW1 3572   2.045   1.322   2.102
 1177SOL    HW2 3573   2.126   1.399   2.204
 1178SOL     OW 3574   1.835   0.365   1.817
 1178SOL    HW1 3575   1.830   0.391   1.909
 1178SOL    HW2 3576   1.909   0.421   1.785
 1179SOL     OW 3577   1.859   0.089   2.161
 1179SOL    HW1 3578   1.932   0.113   2.102
 1179SOL    HW2 3579   1.906   0.034   2.228
 1180SOL     OW 3580   3.094   1.297   2.037
 1180SOL    HW1 3581   3.010   1.250   2.039
 1180SOL    HW2 3582   3.109   1.318   2.131
 1181SOL     OW 3583   3.350   1.843   2.887
 1181SOL    HW1 3584   3.399   1.899   2.825
 1181SOL    HW2 3585   3.417   1.776   2.913
 1182SOL     OW 3586   3.095   0.340   2.308
 1182SOL    HW1 3587   3.165   0.271   2.305
 1182SOL    HW2 3588   3.116   0.384   2.392
 1183SOL     OW 3589   2.430   0.713   2.543
 1183SOL    HW1 3590   2.476   0.797   2.529
 1183SOL    HW2 3591   2.374   0.705   2.464
 1184SOL     OW 3592   1.503   3.131   0.386
 1184SOL    HW1 3593   1.581   3.181   0.362
 1184SOL    HW2 3594   1.470   3.101   0.300
 1185SOL     OW 3595   2.640   1.379   1.941
 1185SOL    HW1 3596   2.667   1.368   2.034
 1185SOL    HW2 3597   2.709   1.439   1.906
 1186SOL     OW 3598   2.536   1.777   2.738
 1186SOL    HW1 3599   2.496   1.865   2.726
 1186SOL    HW2 3600   2.618   1.798   2.783
 1187SOL     OW 3601   2.751   0.981   2.715
 1187SOL    HW1 3602   2.795   0.897   2.740
 1187SOL    HW2 3603   2.703   1.005   2.795
 1188SOL     OW 3604   2.911   0.899   1.938
 1188SOL    HW1 3605   2.901   0.978   1.882
 1188SOL    HW2 3606   3.003   0.873   1.922
 1189SOL     OW 3607   3.700   1.557   2.695
 1189SOL    HW1 3608   3.618   1.563   2.644
 1189SOL    HW2 3609   3.739   1.474   2.664
 1190SOL     OW 3610   2.032   1.269   2.535
 1190SOL    HW1 3611   2.068   1.224   2.613
 1190SOL    HW2 3612   2.083   1.228   2.464
 1191SOL     OW 3613   2.255   0.400   2.402
 1191SOL    HW1 3614   2.304   0.318   2.400
 1191SOL    HW2 3615   2.197   0.389   2.480
 1192SOL     OW 3616   4.351   2.767   0.086
 1192SOL    HW1 3617   4.429   2.711   0.101
 1192SOL    HW2 3618   4.343   2.764  -0.011
 1193SOL     OW 3619   2.709   1.591   2.540
 1193SOL    HW1 3620   2.667   1.665   2.493
 1193SOL    HW2 3621   2.633   1.532   2.557
 1194SOL     OW 3622   2.745   4.256   2.956
 1194SOL    HW1 3623   2.661   4.285   2.918
 1194SOL    HW2 3624   2.790   4.341   2.973
 1195SOL     OW 3625   2.683   1.316   2.201
 1195SOL    HW1 3626   2.658   1.224   2.224
 1195SOL    HW2 3627   2.757   1.335   2.261
 1196SOL     OW 3628   3.193   0.043   1.956
 1196SOL    HW1 3629   3.265   0.016   2.016
 1196SOL    HW2 3630   3.118   0.048   2.016
 1197SOL     OW 3631   3.160   0.468   2.546
 1197SOL    HW1 3632   3.100   0.545   2.548
 1197SOL    HW2 3633   3.146   0.428   2.634
 1198SOL     OW 3634   3.425   0.307   2.710
 1198SOL    HW1 3635   3.334   0.315   2.744
 1198SOL    HW2 3636   3.433   0.386   2.654
 1199SOL     OW 3637   1.904   1.056   2.159
 1199SOL    HW1 3638   1.999   1.040   2.152
 1199SOL    HW2 3639   1.872   0.964   2.175
 1200SOL     OW 3640   2.787   1.691   2.199
 1200SOL    HW1 3641   2.709   1.685   2.140
 1200SOL    HW2 3642   2.758   1.758   2.264
 1201SOL     OW 3643   1.976   2.496   0.112
 1201SOL    HW1 3644   1.888   2.504   0.154
 1201SOL    HW2 3645   1.957   2.436   0.037
 1202SOL     OW 3646   2.081   2.161   0.993
 1202SOL    HW1 3647   2.111   2.122   1.078
 1202SOL    HW2 3648   1.995   2.117   0.983
 1203SOL     OW 3649   1.832   2.272   0.661
 1203SOL    HW1 3650   1.744   2.289   0.699
 1203SOL    HW2 3651   1.811   2.205   0.593
 1204SOL     OW 3652   2.424   3.181   1.231
 1204SOL    HW1 3653   2.343   3.190   1.177
 1204SOL    HW2 3654   2.451   3.274   1.241
 1205SOL     OW 3655   3.486   3.371   0.764
 1205SOL    HW1 3656   3.440   3.348   0.847
 1205SOL    HW2 3657   3.413   3.409   0.712
 1206SOL     OW 3658   3.007   2.554   0.702
 1206SOL    HW1 3659   3.048   2.641   0.686
 1206SOL    HW2 3660   2.967   2.568   0.790
 1207SOL     OW 3661   3.658   2.416   0.303
 1207SOL    HW1 3662   3.646   2.472   0.226
 1207SOL    HW2 3663   3.598   2.457   0.368
 1208SOL     OW 3664   2.580   2.993   1.104
 1208SOL    HW1 3665   2.520   3.044   1.161
 1208SOL    HW2 3666   2.618   3.066   1.052
 1209SOL     OW 3667   2.770   2.564   1.794
 1209SOL    HW1 3668   2.810   2.619   1.864
 1209SOL    HW2 3669   2.766   2.630   1.722
 1210SOL     OW 3670   2.558   2.827   0.653
 1210SOL    HW1 3671   2.627   2.832   0.721
 1210SOL    HW2 3672   2.498   2.898   0.680
 1211SOL     OW 3673   2.537   3.024   1.913
 1211SOL    HW1 3674   2.552   3.081   1.989
 1211SOL    HW2 3675   2.473   3.074   1.860
 1212SOL     OW 3676   2.201   3.246   1.087
 1212SOL    HW1 3677   2.134   3.187   1.049
 1212SOL    HW2 3678   2.232   3.297   1.010
 1213SOL     OW 3679   2.338   2.220   1.419
 1213SOL    HW1 3680   2.415   2.165   1.441
 1213SOL    HW2 3681   2.265   2.171   1.460
 1214SOL     OW 3682   3.438   2.287   0.729
 1214SOL    HW1 3683   3.356   2.286   0.678
 1214SOL    HW2 3684   3.418   2.356   0.795
 1215SOL     OW 3685   2.026   3.620   0.482
 1215SOL    HW1 3686   2.092   3.672   0.532
 1215SOL    HW2 3687   2.027   3.535   0.529
 1216SOL     OW 3688   2.003   3.377   0.608
 1216SOL    HW1 3689   1.944   3.397   0.682
 1216SOL    HW2 3690   2.024   3.284   0.626
 1217SOL     OW 3691   2.163   2.949   0.846
 1217SOL    HW1 3692   2.177   2.859   0.880
 1217SOL    HW2 3693   2.110   2.989   0.918
 1218SOL     OW 3694   2.388   3.672   1.422
 1218SOL    HW1 3695   2.316   3.650   1.483
 1218SOL    HW2 3696   2.428   3.751   1.462
 1219SOL     OW 3697   3.424   1.990   1.404
 1219SOL    HW1 3698   3.498   2.023   1.349
 1219SOL    HW2 3699   3.391   2.071   1.445
 1220SOL     OW 3700   1.954   2.517   0.595
 1220SOL    HW1 3701   1.917   2.431   0.620
 1220SOL    HW2 3702   1.963   2.562   0.682
 1221SOL     OW 3703   3.778   3.684   0.401
 1221SOL    HW1 3704   3.857   3.631   0.425
 1221SOL    HW2 3705   3.811   3.736   0.326
 1222SOL     OW 3706   1.916   3.401   0.071
 1222SOL    HW1 3707   1.923   3.307   0.092
 1222SOL    HW2 3708   1.886   3.438   0.156
 1223SOL     OW 3709   3.542   2.757   0.596
 1223SOL    HW1 3710   3.626   2.770   0.643
 1223SOL    HW2 3711   3.530   2.841   0.548
 1224SOL     OW 3712   3.479   2.997   0.460
 1224SOL    HW1 3713   3.514   3.026   0.373
 1224SOL    HW2 3714   3.531   3.050   0.523
 1225SOL     OW 3715   1.956   2.640   1.518
 1225SOL    HW1 3716   2.007   2.700   1.459
 1225SOL    HW2 3717   1.871   2.687   1.523
 1226SOL     OW 3718   2.487   3.263   0.750
 1226SOL    HW1 3719   2.453   3.176   0.726
 1226SOL    HW2 3720   2.494   3.308   0.664
 1227SOL     OW 3721   2.681   1.901   0.586
 1227SOL    HW1 3722   2.718   1.977   0.538
 1227SOL    HW2 3723   2.585   1.910   0.566
 1228SOL     OW 3724   2.073   2.810   1.333
 1228SOL    HW1 3725   2.162   2.773   1.316
 1228SOL    HW2 3726   2.036   2.815   1.244
 1229SOL     OW 3727   2.228   2.124   1.863
 1229SOL    HW1 3728   2.259   2.203   1.912
 1229SOL    HW2 3729   2.154   2.162   1.812
 1230SOL     OW 3730   3.359   3.287   0.995
 1230SOL    HW1 3731   3.302   3.309   1.071
 1230SOL    HW2 3732   3.314   3.208   0.959
 1231SOL     OW 3733   3.529   3.592   0.464
 1231SOL    HW1 3734   3.621   3.617   0.438
 1231SOL    HW2 3735   3.544   3.508   0.508
 1232SOL     OW 3736   3.132   2.250   0.925
 1232SOL    HW1 3737   3.042   2.216   0.938
 1232SOL    HW2 3738   3.182   2.196   0.990
 1233SOL     OW 3739   2.657   2.454   1.415
 1233SOL    HW1 3740   2.627   2.422   1.502
 1233SOL    HW2 3741   2.630   2.381   1.356
 1234SOL     OW 3742   3.232   2.354   1.662
 1234SOL    HW1 3743   3.234   2.392   1.751
 1234SOL    HW2 3744   3.293   2.279   1.671
 1235SOL     OW 3745   2.789   2.770   1.602
 1235SOL    HW1 3746   2.847   2.712   1.549
 1235SOL    HW2 3747   2.744   2.820   1.532
 1236SOL     OW 3748   2.862   2.247   1.210
 1236SOL    HW1 3749   2.767   2.255   1.226
 1236SOL    HW2 3750   2.865   2.211   1.120
 1237SOL     OW 3751   2.870   2.515   0.472
 1237SOL    HW1 3752   2.930   2.526   0.549
 1237SOL    HW2 3753   2.785   2.513   0.516
 1238SOL     OW 3754   1.969   2.676   0.815
 1238SOL    HW1 3755   2.057   2.678   0.856
 1238SOL    HW2 3756   1.920   2.740   0.869
 1239SOL     OW 3757   1.941   3.736   1.565
 1239SOL    HW1 3758   1.933   3.721   1.662
 1239SOL    HW2 3759   1.856   3.701   1.533
 1240SOL     OW 3760   2.737   2.152   0.105
 1240SOL    HW1 3761   2.791   2.201   0.169
 1240SOL    HW2 3762   2.801   2.087   0.070
 1241SOL     OW 3763   3.252   3.021   0.608
 1241SOL    HW1 3764   3.331   3.017   0.551
 1241SOL    HW2 3765   3.208   3.103   0.577
 1242SOL     OW 3766   2.422   1.967   0.922
 1242SOL    HW1 3767   2.422   1.998   1.015
 1242SOL    HW2 3768   2.427   2.050   0.874
 1243SOL     OW 3769   2.876   3.341   0.470
 1243SOL    HW1 3770   2.805   3.276   0.452
 1243SOL    HW2 3771   2.827   3.409   0.520
 1244SOL     OW 3772   2.189   3.652   0.909
 1244SOL    HW1 3773   2.233   3.565   0.897
 1244SOL    HW2 3774   2.265   3.712   0.923
 1245SOL     OW 3775   3.630   2.965   0.893
 1245SOL    HW1 3776   3.599   3.018   0.817
 1245SOL    HW2 3777   3.546   2.932   0.931
 1246SOL     OW 3778   3.330   2.619   0.699
 1246SOL    HW1 3779   3.341   2.570   0.783
 1246SOL    HW2 3780   3.414   2.667   0.688
 1247SOL     OW 3781   2.342   3.178   1.769
 1247SOL    HW1 3782   2.320   3.185   1.673
 1247SOL    HW2 3783   2.254   3.153   1.804
 1248SOL     OW 3784   2.107   2.095   1.506
 1248SOL    HW1 3785   2.081   2.156   1.577
 1248SOL    HW2 3786   2.050   2.018   1.527
 1249SOL     OW 3787   2.121   3.653   1.190
 1249SOL    HW1 3788   2.157   3.575   1.234
 1249SOL    HW2 3789   2.145   3.639   1.097
 1250SOL     OW 3790   2.758   3.544   0.853
 1250SOL    HW1 3791   2.846   3.504   0.862
 1250SOL    HW2 3792   2.738   3.526   0.759
 1251SOL     OW 3793   2.228   2.578   0.472
 1251SOL    HW1 3794   2.223   2.481   0.487
 1251SOL    HW2 3795   2.139   2.605   0.496
 1252SOL     OW 3796   3.365   2.119   1.713
 1252SOL    HW1 3797   3.364   2.135   1.810
 1252SOL    HW2 3798   3.318   2.035   1.706
 1253SOL     OW 3799   2.627   2.132   1.733
 1253SOL    HW1 3800   2.709   2.079   1.737
 1253SOL    HW2 3801   2.579   2.097   1.810
 1254SOL     OW 3802   2.726   3.445   1.164
 1254SOL    HW1 3803   2.696   3.395   1.087
 1254SOL    HW2 3804   2.752   3.373   1.225
 1255SOL     OW 3805   3.145   2.452   1.425
 1255SOL    HW1 3806   3.185   2.428   1.511
 1255SOL    HW2 3807   3.216   2.505   1.383
 1256SOL     OW 3808   2.652   3.232   0.974
 1256SOL    HW1 3809   2.742   3.233   0.936
 1256SOL    HW2 3810   2.596   3.249   0.896
 1257SOL     OW 3811   2.772   2.374   0.897
 1257SOL    HW1 3812   2.742   2.359   0.805
 1257SOL    HW2 3813   2.806   2.285   0.921
 1258SOL     OW 3814   2.422   1.931   0.518
 1258SOL    HW1 3815   2.334   1.927   0.561
 1258SOL    HW2 3816   2.419   2.020   0.478
 1259SOL     OW 3817   2.806   2.121   0.487
 1259SOL    HW1 3818   2.809   2.176   0.408
 1259SOL    HW2 3819   2.902   2.108   0.502
 1260SOL     OW 3820   2.910   2.587   1.442
 1260SOL    HW1 3821   2.844   2.516   1.444
 1260SOL    HW2 3822   2.994   2.538   1.438
 1261SOL     OW 3823   3.024   3.475   0.839
 1261SOL    HW1 3824   3.060   3.538   0.774
 1261SOL    HW2 3825   3.062   3.509   0.922
 1262SOL     OW 3826   2.370   3.023   0.690
 1262SOL    HW1 3827   2.300   2.998   0.754
 1262SOL    HW2 3828   2.320   3.025   0.606
 1263SOL     OW 3829   3.103   3.677   0.661
 1263SOL    HW1 3830   3.131   3.734   0.587
 1263SOL    HW2 3831   3.027   3.727   0.696
 1264SOL     OW 3832   1.964   2.404   1.379
 1264SOL    HW1 3833   2.060   2.406   1.362
 1264SOL    HW2 3834   1.954   2.481   1.437
 1265SOL     OW 3835   2.412   2.046   1.179
 1265SOL    HW1 3836   2.430   1.974   1.241
 1265SOL    HW2 3837   2.319   2.065   1.200
 1266SOL     OW 3838   2.694   2.320   0.646
 1266SOL    HW1 3839   2.621   2.350   0.589
 1266SOL    HW2 3840   2.729   2.244   0.597
 1267SOL     OW 3841   2.884   1.934   0.766
 1267SOL    HW1 3842   2.811   1.926   0.702
 1267SOL    HW2 3843   2.871   1.853   0.819
 1268SOL     OW 3844   3.238   3.065   0.879
 1268SOL    HW1 3845   3.143   3.042   0.882
 1268SOL    HW2 3846   3.255   3.057   0.784
 1269SOL     OW 3847   3.318   2.455   0.922
 1269SOL    HW1 3848   3.249   2.386   0.933
 1269SOL    HW2 3849   3.380   2.434   0.995
 1270SOL     OW 3850   3.746   2.712   0.350
 1270SOL    HW1 3851   3.771   2.653   0.424
 1270SOL    HW2 3852   3.790   2.669   0.275
 1271SOL     OW 3853   3.582   3.131   0.678
 1271SOL    HW1 3854   3.678   3.146   0.668
 1271SOL    HW2 3855   3.548   3.219   0.702
 1272SOL     OW 3856   2.421   2.171   0.398
 1272SOL    HW1 3857   2.435   2.141   0.306
 1272SOL    HW2 3858   2.482   2.247   0.401
 1273SOL     OW 3859   2.783   3.235   1.326
 1273SOL    HW1 3860   2.700   3.205   1.367
 1273SOL    HW2 3861   2.847   3.180   1.375
 1274SOL     OW 3862   2.993   3.208   1.150
 1274SOL    HW1 3863   2.911   3.213   1.202
 1274SOL    HW2 3864   2.960   3.211   1.059
 1275SOL     OW 3865   3.395   2.871   0.993
 1275SOL    HW1 3866   3.328   2.804   1.014
 1275SOL    HW2 3867   3.339   2.944   0.960
 1276SOL     OW 3868   2.781   1.925   1.377
 1276SOL    HW1 3869   2.806   1.913   1.284
 1276SOL    HW2 3870   2.865   1.958   1.415
 1277SOL     OW 3871   2.800   2.950   1.817
 1277SOL    HW1 3872   2.709   2.973   1.840
 1277SOL    HW2 3873   2.790   2.899   1.735
 1278SOL     OW 3874   2.494   2.933   0.399
 1278SOL    HW1 3875   2.523   2.888   0.480
 1278SOL    HW2 3876   2.525   2.875   0.329
 1279SOL     OW 3877   2.306   2.684   1.284
 1279SOL    HW1 3878   2.371   2.685   1.357
 1279SOL    HW2 3879   2.274   2.591   1.288
 1280SOL     OW 3880   3.109   2.210   1.308
 1280SOL    HW1 3881   3.127   2.297   1.349
 1280SOL    HW2 3882   3.018   2.224   1.273
 1281SOL     OW 3883   1.932   3.408   1.354
 1281SOL    HW1 3884   1.897   3.483   1.304
 1281SOL    HW2 3885   2.029   3.420   1.345
 1282SOL     OW 3886   2.228   3.030   0.450
 1282SOL    HW1 3887   2.210   3.114   0.404
 1282SOL    HW2 3888   2.311   3.001   0.408
 1283SOL     OW 3889   2.363   2.402   0.837
 1283SOL    HW1 3890   2.395   2.454   0.761
 1283SOL    HW2 3891   2.434   2.417   0.902
 1284SOL     OW 3892   3.136   3.253   0.542
 1284SOL    HW1 3893   3.183   3.336   0.560
 1284SOL    HW2 3894   3.047   3.283   0.519
 1285SOL     OW 3895   3.208   3.351   1.217
 1285SOL    HW1 3896   3.206   3.364   1.313
 1285SOL    HW2 3897   3.130   3.292   1.202
 1286SOL     OW 3898   3.462   2.526   0.468
 1286SOL    HW1 3899   3.392   2.527   0.535
 1286SOL    HW2 3900   3.506   2.610   0.490
 1287SOL     OW 3901   2.199   3.404   1.302
 1287SOL    HW1 3902   2.194   3.343   1.225
 1287SOL    HW2 3903   2.294   3.425   1.304
 1288SOL     OW 3904   2.348   2.562   1.671
 1288SOL    HW1 3905   2.391   2.611   1.599
 1288SOL    HW2 3906   2.413   2.491   1.686
 1289SOL     OW 3907   2.843   1.976   1.754
 1289SOL    HW1 3908   2.914   2.040   1.743
 1289SOL    HW2 3909   2.885   1.894   1.723
 1290SOL     OW 3910   2.361   1.904   1.768
 1290SOL    HW1 3911   2.306   1.864   1.698
 1290SOL    HW2 3912   2.310   1.984   1.790
 1291SOL     OW 3913   2.461   2.738   1.065
 1291SOL    HW1 3914   2.501   2.826   1.077
 1291SOL    HW2 3915   2.410   2.727   1.148
 1292SOL     OW 3916   3.199   2.678   1.036
 1292SOL    HW1 3917   3.105   2.674   1.013
 1292SOL    HW2 3918   3.235   2.600   0.989
 1293SOL     OW 3919   2.141   2.046   1.234
 1293SOL    HW1 3920   2.124   2.073   1.325
 1293SOL    HW2 3921   2.110   1.953   1.235
 1294SOL     OW 3922   1.923   3.145   1.277
 1294SOL    HW1 3923   1.960   3.103   1.356
 1294SOL    HW2 3924   1.922   3.239   1.300
 1295SOL     OW 3925   2.544   2.467   1.030
 1295SOL    HW1 3926   2.631   2.456   0.987
 1295SOL    HW2 3927   2.535   2.564   1.037
 1296SOL     OW 3928   2.174   1.918   0.628
 1296SOL    HW1 3929   2.136   2.005   0.652
 1296SOL    HW2 3930   2.181   1.874   0.715
 1297SOL     OW 3931   2.892   2.608   0.955
 1297SOL    HW1 3932   2.863   2.620   1.048
 1297SOL    HW2 3933   2.854   2.520   0.936
 1298SOL     OW 3934   3.742   3.500   1.593
 1298SOL    HW1 3935   3.761   3.465   1.504
 1298SOL    HW2 3936   3.810   3.454   1.646
 1299SOL     OW 3937   2.232   2.764   1.820
 1299SOL    HW1 3938   2.292   2.776   1.895
 1299SOL    HW2 3939   2.275   2.693   1.769
 1300SOL     OW 3940   2.907   3.231   0.890
 1300SOL    HW1 3941   2.942   3.153   0.844
 1300SOL    HW2 3942   2.960   3.304   0.853
 1301SOL     OW 3943   2.205   2.693   0.954
 1301SOL    HW1 3944   2.298   2.707   0.979
 1301SOL    HW2 3945   2.190   2.602   0.985
 1302SOL     OW 3946   2.161   2.416   1.012
 1302SOL    HW1 3947   2.125   2.325   1.004
 1302SOL    HW2 3948   2.231   2.412   0.943
 1303SOL     OW 3949   3.010   2.188   1.691
 1303SOL    HW1 3950   2.958   2.236   1.758
 1303SOL    HW2 3951   3.083   2.251   1.675
 1304SOL     OW 3952   3.019   2.015   1.479
 1304SOL    HW1 3953   3.013   2.077   1.555
 1304SOL    HW2 3954   3.062   2.072   1.412
 1305SOL     OW 3955   1.917   3.150   0.205
 1305SOL    HW1 3956   1.821   3.168   0.192
 1305SOL    HW2 3957   1.916   3.069   0.260
 1306SOL     OW 3958   1.913   3.641   0.938
 1306SOL    HW1 3959   1.886   3.564   0.884
 1306SOL    HW2 3960   2.009   3.646   0.921
 1307SOL     OW 3961   2.323   3.412   0.908
 1307SOL    HW1 3962   2.396   3.467   0.944
 1307SOL    HW2 3963   2.373   3.356   0.845
 1308SOL     OW 3964   2.785   2.625   1.200
 1308SOL    HW1 3965   2.844   2.637   1.277
 1308SOL    HW2 3966   2.717   2.569   1.239
 1309SOL     OW 3967   1.892   2.462   1.120
 1309SOL    HW1 3968   1.976   2.458   1.073
 1309SOL    HW2 3969   1.917   2.438   1.211
 1310SOL     OW 3970   2.080   2.503   1.726
 1310SOL    HW1 3971   2.174   2.522   1.705
 1310SOL    HW2 3972   2.034   2.558   1.661
 1311SOL     OW 3973   2.596   2.374   0.367
 1311SOL    HW1 3974   2.682   2.357   0.326
 1311SOL    HW2 3975   2.567   2.456   0.325
 1312SOL     OW 3976   3.492   2.410   1.116
 1312SOL    HW1 3977   3.458   2.456   1.195
 1312SOL    HW2 3978   3.583   2.443   1.110
 1313SOL     OW 3979   2.058   3.391   1.724
 1313SOL    HW1 3980   2.019   3.419   1.809
 1313SOL    HW2 3981   2.083   3.299   1.745
 1314SOL     OW 3982   2.589   2.271   1.220
 1314SOL    HW1 3983   2.526   2.197   1.214
 1314SOL    HW2 3984   2.556   2.332   1.151
 1315SOL     OW 3985   2.691   3.593   1.512
 1315SOL    HW1 3986   2.716   3.523   1.451
 1315SOL    HW2 3987   2.711   3.673   1.460
 1316SOL     OW 3988   2.021   3.017   1.499
 1316SOL    HW1 3989   2.021   2.974   1.588
 1316SOL    HW2 3990   2.045   2.941   1.442
 1317SOL     OW 3991   3.719   3.629   1.192
 1317SOL    HW1 3992   3.776   3.629   1.114
 1317SOL    HW2 3993   3.657   3.557   1.172
 1318SOL     OW 3994   3.115   3.570   1.080
 1318SOL    HW1 3995   3.203   3.612   1.072
 1318SOL    HW2 3996   3.138   3.492   1.133
 1319SOL     OW 3997   1.998   3.061   1.028
 1319SOL    HW1 3998   1.964   3.089   1.116
 1319SOL    HW2 3999   1.926   3.006   0.994
 1320SOL     OW 4000   2.561   3.567   1.742
 1320SOL    HW1 4001   2.488   3.632   1.739
 1320SOL    HW2 4002   2.605   3.583   1.655
 1321SOL     OW 4003   3.289   3.485   0.601
 1321SOL    HW1 4004   3.341   3.534   0.535
 1321SOL    HW2 4005   3.223   3.551   0.628
 1322SOL     OW 4006   1.949   3.681   1.826
 1322SOL    HW1 4007   1.924   3.595   1.864
 1322SOL    HW2 4008   2.013   3.714   1.891
 1323SOL     OW 4009   3.128   2.793   0.676
 1323SOL    HW1 4010   3.206   2.733   0.681
 1323SOL    HW2 4011   3.170   2.875   0.641
 1324SOL     OW 4012   2.575   3.135   1.468
 1324SOL    HW1 4013   2.575   3.192   1.547
 1324SOL    HW2 4014   2.490   3.154   1.426
 1325SOL     OW 4015   3.717   2.054   0.985
 1325SOL    HW1 4016   3.743   1.963   0.959
 1325SOL    HW2 4017   3.627   2.061   0.947
 1326SOL     OW 4018   2.084   2.166   0.710
 1326SOL    HW1 4019   1.996   2.205   0.698
 1326SOL    HW2 4020   2.097   2.174   0.806
 1327SOL     OW 4021   2.651   2.886   1.395
 1327SOL    HW1 4022   2.667   2.903   1.302
 1327SOL    HW2 4023   2.626   2.976   1.427
 1328SOL     OW 4024   2.243   3.200   1.518
 1328SOL    HW1 4025   2.223   3.271   1.455
 1328SOL    HW2 4026   2.168   3.139   1.506
 1329SOL     OW 4027   2.980   2.975   0.819
 1329SOL    HW1 4028   2.892   2.935   0.833
 1329SOL    HW2 4029   3.023   2.907   0.763
 1330SOL     OW 4030   2.887   2.118   0.965
 1330SOL    HW1 4031   2.887   2.068   0.881
 1330SOL    HW2 4032   2.885   2.044   1.029
 1331SOL     OW 4033   2.503   3.384   0.503
 1331SOL    HW1 4034   2.545   3.315   0.449
 1331SOL    HW2 4035   2.460   3.441   0.436
 1332SOL     OW 4036   3.701   2.240   1.424
 1332SOL    HW1 4037   3.739   2.320   1.383
 1332SOL    HW2 4038   3.679   2.184   1.348
 1333SOL     OW 4039   2.118   3.265   0.351
 1333SOL    HW1 4040   2.040   3.233   0.302
 1333SOL    HW2 4041   2.079   3.318   0.422
 1334SOL     OW 4042   2.007   2.897   1.740
 1334SOL    HW1 4043   1.929   2.865   1.791
 1334SOL    HW2 4044   2.079   2.839   1.773
 1335SOL     OW 4045   2.550   2.046   1.483
 1335SOL    HW1 4046   2.634   2.015   1.445
 1335SOL    HW2 4047   2.577   2.078   1.571
 1336SOL     OW 4048   4.085   0.147   2.977
 1336SOL    HW1 4049   4.032   0.071   2.948
 1336SOL    HW2 4050   4.176   0.114   2.966
 1337SOL     OW 4051   3.322   2.595   1.277
 1337SOL    HW1 4052   3.270   2.633   1.205
 1337SOL    HW2 4053   3.405   2.646   1.269
 1338SOL     OW 4054   1.919   2.009   0.253
 1338SOL    HW1 4055   1.867   2.059   0.189
 1338SOL    HW2 4056   2.010   2.036   0.229
 1339SOL     OW 4057   2.498   2.673   1.469
 1339SOL    HW1 4058   2.552   2.753   1.452
 1339SOL    HW2 4059   2.562   2.601   1.452
 1340SOL     OW 4060   3.372   3.653   1.074
 1340SOL    HW1 4061   3.415   3.708   1.006
 1340SOL    HW2 4062   3.440   3.587   1.094
 1341SOL     OW 4063   2.581   2.398   1.672
 1341SOL    HW1 4064   2.645   2.447   1.728
 1341SOL    HW2 4065   2.597   2.305   1.698
 1342SOL     OW 4066   3.387   3.137   1.665
 1342SOL    HW1 4067   3.377   3.098   1.754
 1342SOL    HW2 4068   3.440   3.071   1.620
 1343SOL     OW 4069   2.184   3.607   1.600
 1343SOL    HW1 4070   2.100   3.652   1.577
 1343SOL    HW2 4071   2.150   3.524   1.639
 1344SOL     OW 4072   3.547   2.708   1.178
 1344SOL    HW1 4073   3.625   2.662   1.143
 1344SOL    HW2 4074   3.526   2.773   1.109
 1345SOL     OW 4075   3.081   2.137   0.482
 1345SOL    HW1 4076   3.103   2.173   0.394
 1345SOL    HW2 4077   3.117   2.205   0.542
 1346SOL     OW 4078   2.453   2.568   0.636
 1346SOL    HW1 4079   2.491   2.658   0.644
 1346SOL    HW2 4080   2.377   2.583   0.577
 1347SOL     OW 4081   3.633   2.120   1.659
 1347SOL    HW1 4082   3.647   2.171   1.577
 1347SOL    HW2 4083   3.536   2.120   1.668
 1348SOL     OW 4084   2.516   3.581   0.977
 1348SOL    HW1 4085   2.496   3.675   0.963
 1348SOL    HW2 4086   2.607   3.573   0.941
 1349SOL     OW 4087   2.742   2.837   0.873
 1349SOL    HW1 4088   2.789   2.757   0.902
 1349SOL    HW2 4089   2.696   2.865   0.954
 1350SOL     OW 4090   2.924   2.858   0.132
 1350SOL    HW1 4091   2.912   2.813   0.047
 1350SOL    HW2 4092   2.968   2.791   0.185
 1351SOL     OW 4093   3.758   3.417   0.832
 1351SOL    HW1 4094   3.664   3.412   0.811
 1351SOL    HW2 4095   3.787   3.325   0.823
 1352SOL     OW 4096   2.082   3.139   1.827
 1352SOL    HW1 4097   2.057   3.051   1.792
 1352SOL    HW2 4098   2.024   3.144   1.906
 1353SOL     OW 4099   2.033   3.109   0.651
 1353SOL    HW1 4100   2.065   3.054   0.724
 1353SOL    HW2 4101   2.080   3.071   0.575
 1354SOL     OW 4102   2.577   3.297   1.689
 1354SOL    HW1 4103   2.497   3.258   1.728
 1354SOL    HW2 4104   2.562   3.392   1.705
 1355SOL     OW 4105   3.646   2.037   1.246
 1355SOL    HW1 4106   3.658   1.941   1.243
 1355SOL    HW2 4107   3.673   2.062   1.155
 1356SOL     OW 4108   2.206   2.310   0.498
 1356SOL    HW1 4109   2.280   2.251   0.475
 1356SOL    HW2 4110   2.167   2.264   0.575
 1357SOL     OW 4111   3.560   3.417   1.129
 1357SOL    HW1 4112   3.493   3.369   1.078
 1357SOL    HW2 4113   3.604   3.345   1.176
 1358SOL     OW 4114   2.223   2.428   1.291
 1358SOL    HW1 4115   2.273   2.354   1.334
 1358SOL    HW2 4116   2.222   2.401   1.198
 1359SOL     OW 4117   2.715   3.530   0.587
 1359SOL    HW1 4118   2.698   3.625   0.571
 1359SOL    HW2 4119   2.630   3.489   0.560
 1360SOL     OW 4120   3.265   2.107   1.108
 1360SOL    HW1 4121   3.288   2.017   1.133
 1360SOL    HW2 4122   3.219   2.140   1.188
 1361SOL     OW 4123   2.883   1.882   1.111
 1361SOL    HW1 4124   2.841   1.813   1.057
 1361SOL    HW2 4125   2.975   1.848   1.115
 1362SOL     OW 4126   2.639   3.177   0.387
 1362SOL    HW1 4127   2.583   3.099   0.402
 1362SOL    HW2 4128   2.685   3.150   0.304
 1363SOL     OW 4129   2.464   3.455   1.277
 1363SOL    HW1 4130   2.450   3.537   1.328
 1363SOL    HW2 4131   2.541   3.477   1.222
 1364SOL     OW 4132   3.163   2.323   0.664
 1364SOL    HW1 4133   3.118   2.409   0.667
 1364SOL    HW2 4134   3.149   2.291   0.755
 1365SOL     OW 4135   3.459   2.071   0.909
 1365SOL    HW1 4136   3.395   2.105   0.974
 1365SOL    HW2 4137   3.452   2.136   0.837
 1366SOL     OW 4138   1.967   2.934   0.364
 1366SOL    HW1 4139   2.061   2.940   0.386
 1366SOL    HW2 4140   1.956   2.837   0.350
 1367SOL     OW 4141   2.084   2.523   2.010
 1367SOL    HW1 4142   1.996   2.490   2.037
 1367SOL    HW2 4143   2.075   2.528   1.914
 1368SOL     OW 4144   2.071   2.222   2.815
 1368SOL    HW1 4145   2.114   2.214   2.902
 1368SOL    HW2 4146   1.988   2.173   2.831
 1369SOL     OW 4147   1.834   2.293   2.505
 1369SOL    HW1 4148   1.750   2.306   2.553
 1369SOL    HW2 4149   1.809   2.222   2.444
 1370SOL     OW 4150   2.431   3.195   3.056
 1370SOL    HW1 4151   2.345   3.222   3.019
 1370SOL    HW2 4152   2.491   3.206   2.980
 1371SOL     OW 4153   3.475   3.358   2.565
 1371SOL    HW1 4154   3.414   3.343   2.640
 1371SOL    HW2 4155   3.411   3.371   2.493
 1372SOL     OW 4156   3.004   2.561   2.549
 1372SOL    HW1 4157   3.045   2.649   2.535
 1372SOL    HW2 4158   2.957   2.576   2.633
 1373SOL     OW 4159   3.666   2.408   2.067
 1373SOL    HW1 4160   3.689   2.342   1.999
 1373SOL    HW2 4161   3.589   2.365   2.109
 1374SOL     OW 4162   2.639   2.933   2.906
 1374SOL    HW1 4163   2.603   2.896   2.988
 1374SOL    HW2 4164   2.608   3.024   2.906
 1375SOL     OW 4165   2.533   2.793   2.511
 1375SOL    HW1 4166   2.608   2.800   2.573
 1375SOL    HW2 4167   2.477   2.867   2.538
 1376SOL     OW 4168   2.190   3.302   2.957
 1376SOL    HW1 4169   2.124   3.239   2.923
 1376SOL    HW2 4170   2.217   3.349   2.876
 1377SOL     OW 4171   3.429   2.286   2.598
 1377SOL    HW1 4172   3.354   2.288   2.537
 1377SOL    HW2 4173   3.406   2.359   2.658
 1378SOL     OW 4174   2.093   3.606   2.304
 1378SOL    HW1 4175   2.125   3.672   2.368
 1378SOL    HW2 4176   2.168   3.604   2.241
 1379SOL     OW 4177   2.158   3.341   2.357
 1379SOL    HW1 4178   2.119   3.430   2.360
 1379SOL    HW2 4179   2.108   3.292   2.425
 1380SOL     OW 4180   2.157   2.988   2.713
 1380SOL    HW1 4181   2.170   2.897   2.746
 1380SOL    HW2 4182   2.105   3.028   2.786
 1381SOL     OW 4183   2.405   2.814   2.041
 1381SOL    HW1 4184   2.452   2.874   1.980
 1381SOL    HW2 4185   2.450   2.837   2.125
 1382SOL     OW 4186   1.431   4.142   0.298
 1382SOL    HW1 4187   1.401   4.226   0.257
 1382SOL    HW2 4188   1.347   4.108   0.334
 1383SOL     OW 4189   1.970   2.539   2.446
 1383SOL    HW1 4190   1.932   2.454   2.473
 1383SOL    HW2 4191   1.970   2.590   2.529
 1384SOL     OW 4192   3.697   3.599   2.145
 1384SOL    HW1 4193   3.755   3.595   2.224
 1384SOL    HW2 4194   3.719   3.688   2.111
 1385SOL     OW 4195   1.921   3.439   1.954
 1385SOL    HW1 4196   1.874   3.356   1.970
 1385SOL    HW2 4197   1.902   3.489   2.036
 1386SOL     OW 4198   3.567   2.822   2.586
 1386SOL    HW1 4199   3.651   2.773   2.591
 1386SOL    HW2 4200   3.570   2.861   2.498
 1387SOL     OW 4201   3.518   2.948   2.295
 1387SOL    HW1 4202   3.596   2.927   2.240
 1387SOL    HW2 4203   3.552   3.023   2.349
 1388SOL     OW 4204   2.456   3.252   2.594
 1388SOL    HW1 4205   2.425   3.160   2.582
 1388SOL    HW2 4206   2.443   3.286   2.503
 1389SOL     OW 4207   2.699   1.879   2.384
 1389SOL    HW1 4208   2.734   1.966   2.355
 1389SOL    HW2 4209   2.603   1.896   2.383
 1390SOL     OW 4210   4.221   0.753   0.114
 1390SOL    HW1 4211   4.280   0.700   0.059
 1390SOL    HW2 4212   4.139   0.702   0.115
 1391SOL     OW 4213   3.341   2.844   2.107
 1391SOL    HW1 4214   3.271   2.801   2.160
 1391SOL    HW2 4215   3.406   2.869   2.175
 1392SOL     OW 4216   3.280   3.299   2.757
 1392SOL    HW1 4217   3.283   3.291   2.853
 1392SOL    HW2 4218   3.272   3.206   2.729
 1393SOL     OW 4219   3.502   3.666   2.383
 1393SOL    HW1 4220   3.488   3.606   2.308
 1393SOL    HW2 4221   3.536   3.607   2.451
 1394SOL     OW 4222   2.436   2.542   2.149
 1394SOL    HW1 4223   2.434   2.630   2.107
 1394SOL    HW2 4224   2.370   2.551   2.220
 1395SOL     OW 4225   3.153   2.254   2.811
 1395SOL    HW1 4226   3.064   2.215   2.801
 1395SOL    HW2 4227   3.189   2.195   2.881
 1396SOL     OW 4228   3.430   3.523   2.152
 1396SOL    HW1 4229   3.524   3.541   2.133
 1396SOL    HW2 4230   3.406   3.466   2.075
 1397SOL     OW 4231   2.909   2.543   2.293
 1397SOL    HW1 4232   2.930   2.536   2.389
 1397SOL    HW2 4233   2.822   2.498   2.288
 1398SOL     OW 4234   1.959   2.711   2.659
 1398SOL    HW1 4235   2.044   2.712   2.706
 1398SOL    HW2 4236   1.908   2.776   2.710
 1399SOL     OW 4237   2.707   2.203   2.069
 1399SOL    HW1 4238   2.763   2.235   1.996
 1399SOL    HW2 4239   2.653   2.136   2.026
 1400SOL     OW 4240   3.265   3.006   2.408
 1400SOL    HW1 4241   3.348   2.991   2.360
 1400SOL    HW2 4242   3.219   3.072   2.353
 1401SOL     OW 4243   2.400   2.016   2.739
 1401SOL    HW1 4244   2.424   2.024   2.834
 1401SOL    HW2 4245   2.402   2.109   2.710
 1402SOL     OW 4246   2.884   3.317   2.296
 1402SOL    HW1 4247   2.855   3.392   2.240
 1402SOL    HW2 4248   2.827   3.328   2.374
 1403SOL     OW 4249   2.195   3.697   2.732
 1403SOL    HW1 4250   2.232   3.607   2.737
 1403SOL    HW2 4251   2.270   3.751   2.763
 1404SOL     OW 4252   3.510   3.002   2.792
 1404SOL    HW1 4253   3.542   2.937   2.727
 1404SOL    HW2 4254   3.421   3.019   2.756
 1405SOL     OW 4255   2.142   2.784   2.132
 1405SOL    HW1 4256   2.231   2.796   2.095
 1405SOL    HW2 4257   2.121   2.693   2.103
 1406SOL     OW 4258   3.354   2.649   2.572
 1406SOL    HW1 4259   3.354   2.590   2.649
 1406SOL    HW2 4260   3.428   2.709   2.590
 1407SOL     OW 4261   3.021   3.568   2.030
 1407SOL    HW1 4262   2.940   3.558   2.082
 1407SOL    HW2 4263   2.997   3.527   1.946
 1408SOL     OW 4264   3.570   3.204   1.975
 1408SOL    HW1 4265   3.512   3.281   1.961
 1408SOL    HW2 4266   3.508   3.132   1.955
 1409SOL     OW 4267   2.320   3.635   2.150
 1409SOL    HW1 4268   2.373   3.685   2.214
 1409SOL    HW2 4269   2.389   3.584   2.104
 1410SOL     OW 4270   3.247   1.993   2.336
 1410SOL    HW1 4271   3.254   1.975   2.241
 1410SOL    HW2 4272   3.334   1.965   2.368
 1411SOL     OW 4273   2.759   3.533   2.688
 1411SOL    HW1 4274   2.833   3.483   2.724
 1411SOL    HW2 4275   2.733   3.478   2.612
 1412SOL     OW 4276   2.242   2.540   2.344
 1412SOL    HW1 4277   2.237   2.442   2.341
 1412SOL    HW2 4278   2.151   2.561   2.372
 1413SOL     OW 4279   2.536   1.993   1.962
 1413SOL    HW1 4280   2.585   1.913   1.989
 1413SOL    HW2 4281   2.471   1.956   1.900
 1414SOL     OW 4282   1.171   0.248   0.171
 1414SOL    HW1 4283   1.185   0.275   0.263
 1414SOL    HW2 4284   1.132   0.328   0.132
 1415SOL     OW 4285   2.595   3.207   2.836
 1415SOL    HW1 4286   2.689   3.212   2.810
 1415SOL    HW2 4287   2.550   3.224   2.751
 1416SOL     OW 4288   2.801   2.359   2.763
 1416SOL    HW1 4289   2.775   2.350   2.669
 1416SOL    HW2 4290   2.840   2.271   2.780
 1417SOL     OW 4291   2.435   1.937   2.357
 1417SOL    HW1 4292   2.357   1.939   2.416
 1417SOL    HW2 4293   2.419   2.015   2.300
 1418SOL     OW 4294   3.359   3.039   1.919
 1418SOL    HW1 4295   3.357   2.960   1.978
 1418SOL    HW2 4296   3.281   3.088   1.949
 1419SOL     OW 4297   2.121   1.925   2.019
 1419SOL    HW1 4298   2.167   1.997   1.973
 1419SOL    HW2 4299   2.193   1.881   2.067
 1420SOL     OW 4300   2.805   2.117   2.311
 1420SOL    HW1 4301   2.774   2.150   2.224
 1420SOL    HW2 4302   2.899   2.141   2.309
 1421SOL     OW 4303   3.039   3.409   2.674
 1421SOL    HW1 4304   3.066   3.476   2.609
 1421SOL    HW2 4305   3.124   3.373   2.702
 1422SOL     OW 4306   2.358   3.007   2.538
 1422SOL    HW1 4307   2.289   2.997   2.605
 1422SOL    HW2 4308   2.307   2.996   2.455
 1423SOL     OW 4309   3.120   3.619   2.507
 1423SOL    HW1 4310   3.170   3.691   2.464
 1423SOL    HW2 4311   3.034   3.662   2.522
 1424SOL     OW 4312   2.876   2.326   1.885
 1424SOL    HW1 4313   2.842   2.412   1.854
 1424SOL    HW2 4314   2.932   2.351   1.961
 1425SOL     OW 4315   4.023   0.220   0.228
 1425SOL    HW1 4316   4.083   0.157   0.274
 1425SOL    HW2 4317   4.055   0.306   0.263
 1426SOL     OW 4318   2.467   2.005   2.999
 1426SOL    HW1 4319   2.471   1.940   3.070
 1426SOL    HW2 4320   2.458   2.089   3.048
 1427SOL     OW 4321   2.742   2.315   2.503
 1427SOL    HW1 4322   2.688   2.368   2.441
 1427SOL    HW2 4323   2.761   2.237   2.449
 1428SOL     OW 4324   2.888   1.920   2.587
 1428SOL    HW1 4325   2.820   1.913   2.518
 1428SOL    HW2 4326   2.864   1.846   2.646
 1429SOL     OW 4327   3.265   3.043   2.680
 1429SOL    HW1 4328   3.186   2.994   2.706
 1429SOL    HW2 4329   3.266   3.029   2.583
 1430SOL     OW 4330   3.327   2.465   2.784
 1430SOL    HW1 4331   3.259   2.396   2.799
 1430SOL    HW2 4332   3.387   2.450   2.859
 1431SOL     OW 4333   3.659   2.627   2.227
 1431SOL    HW1 4334   3.721   2.589   2.292
 1431SOL    HW2 4335   3.657   2.557   2.159
 1432SOL     OW 4336   2.374   3.323   2.001
 1432SOL    HW1 4337   2.304   3.279   2.053
 1432SOL    HW2 4338   2.363   3.280   1.915
 1433SOL     OW 4339   3.619   3.134   2.452
 1433SOL    HW1 4340   3.713   3.130   2.477
 1433SOL    HW2 4341   3.587   3.213   2.498
 1434SOL     OW 4342   3.226   2.410   1.928
 1434SOL    HW1 4343   3.155   2.403   1.995
 1434SOL    HW2 4344   3.277   2.329   1.949
 1435SOL     OW 4345   2.381   2.120   2.163
 1435SOL    HW1 4346   2.435   2.080   2.093
 1435SOL    HW2 4347   2.348   2.200   2.118
 1436SOL     OW 4348   3.036   3.073   2.934
 1436SOL    HW1 4349   2.997   2.985   2.928
 1436SOL    HW2 4350   2.973   3.126   2.884
 1437SOL     OW 4351   2.555   2.883   2.255
 1437SOL    HW1 4352   2.542   2.848   2.345
 1437SOL    HW2 4353   2.640   2.840   2.230
 1438SOL     OW 4354   2.189   2.989   2.320
 1438SOL    HW1 4355   2.197   3.052   2.246
 1438SOL    HW2 4356   2.171   2.905   2.273
 1439SOL     OW 4357   2.422   2.300   2.692
 1439SOL    HW1 4358   2.446   2.365   2.624
 1439SOL    HW2 4359   2.474   2.330   2.769
 1440SOL     OW 4360   3.136   3.213   2.278
 1440SOL    HW1 4361   3.185   3.285   2.321
 1440SOL    HW2 4362   3.043   3.242   2.291
 1441SOL     OW 4363   3.433   2.501   2.345
 1441SOL    HW1 4364   3.389   2.552   2.415
 1441SOL    HW2 4365   3.495   2.565   2.308
 1442SOL     OW 4366   3.163   2.683   2.857
 1442SOL    HW1 4367   3.071   2.667   2.829
 1442SOL    HW2 4368   3.212   2.612   2.813
 1443SOL     OW 4369   3.026   2.378   2.109
 1443SOL    HW1 4370   3.046   2.306   2.173
 1443SOL    HW2 4371   2.987   2.444   2.169
 1444SOL     OW 4372   4.059   1.018   0.085
 1444SOL    HW1 4373   4.090   0.964   0.160
 1444SOL    HW2 4374   4.120   1.093   0.088
 1445SOL     OW 4375   2.563   2.398   2.901
 1445SOL    HW1 4376   2.652   2.400   2.861
 1445SOL    HW2 4377   2.565   2.472   2.964
 1446SOL     OW 4378   2.189   1.934   2.485
 1446SOL    HW1 4379   2.146   2.020   2.503
 1446SOL    HW2 4380   2.187   1.892   2.573
 1447SOL     OW 4381   3.459   2.279   2.194
 1447SOL    HW1 4382   3.504   2.218   2.255
 1447SOL    HW2 4383   3.436   2.354   2.252
 1448SOL     OW 4384   2.898   2.608   2.798
 1448SOL    HW1 4385   2.885   2.631   2.893
 1448SOL    HW2 4386   2.861   2.518   2.795
 1449SOL     OW 4387   3.342   2.163   1.979
 1449SOL    HW1 4388   3.310   2.078   2.015
 1449SOL    HW2 4389   3.389   2.201   2.056
 1450SOL     OW 4390   3.171   2.681   1.936
 1450SOL    HW1 4391   3.204   2.591   1.921
 1450SOL    HW2 4392   3.252   2.730   1.958
 1451SOL     OW 4393   2.861   3.211   2.745
 1451SOL    HW1 4394   2.889   3.131   2.696
 1451SOL    HW2 4395   2.924   3.278   2.713
 1452SOL     OW 4396   2.192   2.734   2.809
 1452SOL    HW1 4397   2.230   2.740   2.899
 1452SOL    HW2 4398   2.213   2.643   2.784
 1453SOL     OW 4399   2.205   2.459   2.768
 1453SOL    HW1 4400   2.144   2.383   2.767
 1453SOL    HW2 4401   2.285   2.418   2.731
 1454SOL     OW 4402   1.911   3.142   2.041
 1454SOL    HW1 4403   1.820   3.170   2.019
 1454SOL    HW2 4404   1.895   3.055   2.083
 1455SOL     OW 4405   6.266   3.645   2.808
 1455SOL    HW1 4406   6.238   3.573   2.748
 1455SOL    HW2 4407   6.359   3.657   2.782
 1456SOL     OW 4408   2.315   3.441   2.750
 1456SOL    HW1 4409   2.394   3.494   2.772
 1456SOL    HW2 4410   2.353   3.373   2.692
 1457SOL     OW 4411   2.863   2.665   3.055
 1457SOL    HW1 4412   2.904   2.663   3.142
 1457SOL    HW2 4413   2.768   2.662   3.077
 1458SOL     OW 4414   6.196   2.459   3.029
 1458SOL    HW1 4415   6.290   2.477   3.016
 1458SOL    HW2 4416   6.195   2.428   3.122
 1459SOL     OW 4417   2.670   2.421   2.244
 1459SOL    HW1 4418   2.672   2.346   2.182
 1459SOL    HW2 4419   2.589   2.467   2.217
 1460SOL     OW 4420   3.481   2.402   2.998
 1460SOL    HW1 4421   3.423   2.404   3.076
 1460SOL    HW2 4422   3.566   2.429   3.036
 1461SOL     OW 4423   2.296   2.341   2.022
 1461SOL    HW1 4424   2.361   2.404   2.058
 1461SOL    HW2 4425   2.216   2.397   2.024
 1462SOL     OW 4426   4.171   0.909   0.326
 1462SOL    HW1 4427   4.144   0.846   0.396
 1462SOL    HW2 4428   4.203   0.846   0.257
 1463SOL     OW 4429   3.130   2.708   2.213
 1463SOL    HW1 4430   3.060   2.658   2.256
 1463SOL    HW2 4431   3.117   2.687   2.120
 1464SOL     OW 4432   3.522   3.586   2.894
 1464SOL    HW1 4433   3.610   3.597   2.855
 1464SOL    HW2 4434   3.539   3.515   2.960
 1465SOL     OW 4435   6.318   3.099   2.893
 1465SOL    HW1 4436   6.283   3.108   2.983
 1465SOL    HW2 4437   6.250   3.044   2.850
 1466SOL     OW 4438   3.607   2.091   2.329
 1466SOL    HW1 4439   3.653   2.068   2.245
 1466SOL    HW2 4440   3.570   2.006   2.356
 1467SOL     OW 4441   3.281   3.425   2.379
 1467SOL    HW1 4442   3.316   3.465   2.298
 1467SOL    HW2 4443   3.222   3.494   2.415
 1468SOL     OW 4444   3.131   2.800   2.528
 1468SOL    HW1 4445   3.211   2.745   2.544
 1468SOL    HW2 4446   3.166   2.864   2.464
 1469SOL     OW 4447   2.544   3.531   2.012
 1469SOL    HW1 4448   2.558   3.538   1.916
 1469SOL    HW2 4449   2.492   3.448   2.017
 1470SOL     OW 4450   3.722   2.044   2.836
 1470SOL    HW1 4451   3.733   1.948   2.837
 1470SOL    HW2 4452   3.628   2.054   2.813
 1471SOL     OW 4453   2.077   2.171   2.549
 1471SOL    HW1 4454   1.992   2.215   2.532
 1471SOL    HW2 4455   2.088   2.187   2.644
 1472SOL     OW 4456   2.781   2.765   2.187
 1472SOL    HW1 4457   2.823   2.760   2.100
 1472SOL    HW2 4458   2.826   2.693   2.234
 1473SOL     OW 4459   3.354   3.374   1.935
 1473SOL    HW1 4460   3.278   3.317   1.958
 1473SOL    HW2 4461   3.350   3.376   1.839
 1474SOL     OW 4462   2.948   2.976   2.638
 1474SOL    HW1 4463   2.868   2.921   2.649
 1474SOL    HW2 4464   3.007   2.914   2.592
 1475SOL     OW 4465   2.921   2.111   2.789
 1475SOL    HW1 4466   2.913   2.057   2.707
 1475SOL    HW2 4467   2.905   2.043   2.857
 1476SOL     OW 4468   2.454   3.330   2.330
 1476SOL    HW1 4469   2.485   3.272   2.259
 1476SOL    HW2 4470   2.359   3.340   2.310
 1477SOL     OW 4471   2.169   3.196   2.134
 1477SOL    HW1 4472   2.078   3.186   2.103
 1477SOL    HW2 4473   2.158   3.253   2.213
 1478SOL     OW 4474   2.021   2.239   1.725
 1478SOL    HW1 4475   1.924   2.238   1.727
 1478SOL    HW2 4476   2.040   2.335   1.728
 1479SOL     OW 4477   1.877   1.985   2.123
 1479SOL    HW1 4478   1.842   2.038   2.051
 1479SOL    HW2 4479   1.969   1.969   2.094
 1480SOL     OW 4480   3.155   3.197   2.008
 1480SOL    HW1 4481   3.064   3.179   1.983
 1480SOL    HW2 4482   3.150   3.199   2.106
 1481SOL     OW 4483   3.318   3.752   2.841
 1481SOL    HW1 4484   3.253   3.696   2.796
 1481SOL    HW2 4485   3.394   3.691   2.850
 1482SOL     OW 4486   3.068   2.198   2.314
 1482SOL    HW1 4487   3.130   2.123   2.319
 1482SOL    HW2 4488   3.095   2.249   2.393
 1483SOL     OW 4489   2.451   2.524   2.528
 1483SOL    HW1 4490   2.487   2.614   2.526
 1483SOL    HW2 4491   2.377   2.531   2.466
 1484SOL     OW 4492   2.515   3.614   2.803
 1484SOL    HW1 4493   2.503   3.710   2.789
 1484SOL    HW2 4494   2.604   3.598   2.766
 1485SOL     OW 4495   2.738   2.811   2.692
 1485SOL    HW1 4496   2.785   2.735   2.729
 1485SOL    HW2 4497   2.700   2.853   2.772
 1486SOL     OW 4498   2.907   2.739   1.950
 1486SOL    HW1 4499   2.887   2.824   1.905
 1486SOL    HW2 4500   3.003   2.728   1.934
 1487SOL     OW 4501   3.723   3.398   2.674
 1487SOL    HW1 4502   3.636   3.389   2.632
 1487SOL    HW2 4503   3.722   3.325   2.739
 1488SOL     OW 4504   2.037   3.131   2.504
 1488SOL    HW1 4505   2.066   3.088   2.586
 1488SOL    HW2 4506   2.079   3.075   2.436
 1489SOL     OW 4507   2.230   2.276   2.346
 1489SOL    HW1 4508   2.277   2.204   2.302
 1489SOL    HW2 4509   2.183   2.232   2.419
 1490SOL     OW 4510   2.684   3.374   2.481
 1490SOL    HW1 4511   2.616   3.390   2.413
 1490SOL    HW2 4512   2.640   3.309   2.536
 1491SOL     OW 4513   3.239   2.066   2.989
 1491SOL    HW1 4514   3.274   1.982   2.953
 1491SOL    HW2 4515   3.191   2.033   3.066
 1492SOL     OW 4516   2.882   1.884   2.955
 1492SOL    HW1 4517   2.842   1.831   3.026
 1492SOL    HW2 4518   2.875   1.822   2.880
 1493SOL     OW 4519   2.593   3.140   2.173
 1493SOL    HW1 4520   2.575   3.050   2.207
 1493SOL    HW2 4521   2.687   3.151   2.195
 1494SOL     OW 4522   3.265   1.919   2.077
 1494SOL    HW1 4523   3.326   1.844   2.081
 1494SOL    HW2 4524   3.178   1.873   2.079
 1495SOL     OW 4525   3.150   2.328   2.538
 1495SOL    HW1 4526   3.100   2.412   2.538
 1495SOL    HW2 4527   3.144   2.300   2.631
 1496SOL     OW 4528   3.458   2.075   2.774
 1496SOL    HW1 4529   3.400   2.114   2.840
 1496SOL    HW2 4530   3.452   2.139   2.701
 1497SOL     OW 4531   1.893   2.896   2.172
 1497SOL    HW1 4532   1.985   2.869   2.151
 1497SOL    HW2 4533   1.855   2.808   2.192
 1498SOL     OW 4534   2.781   3.536   2.163
 1498SOL    HW1 4535   2.697   3.530   2.114
 1498SOL    HW2 4536   2.761   3.607   2.227
 1499SOL     OW 4537   1.916   4.312   0.139
 1499SOL    HW1 4538   1.888   4.233   0.090
 1499SOL    HW2 4539   2.004   4.286   0.173
 1500SOL     OW 4540   2.065   3.998   0.996
 1500SOL    HW1 4541   2.102   3.960   1.078
 1500SOL    HW2 4542   1.974   3.964   0.997
 1501SOL     OW 4543   1.800   4.035   0.682
 1501SOL    HW1 4544   1.730   4.025   0.748
 1501SOL    HW2 4545   1.770   3.973   0.613
 1502SOL     OW 4546   3.610   0.071   0.340
 1502SOL    HW1 4547   3.672   0.080   0.265
 1502SOL    HW2 4548   3.592  -0.025   0.340
 1503SOL     OW 4549   2.321   4.097   1.521
 1503SOL    HW1 4550   2.395   4.034   1.508
 1503SOL    HW2 4551   2.244   4.038   1.514
 1504SOL     OW 4552   3.456   4.097   0.768
 1504SOL    HW1 4553   3.382   4.122   0.711
 1504SOL    HW2 4554   3.446   4.162   0.841
 1505SOL     OW 4555   1.783   4.303   0.579
 1505SOL    HW1 4556   1.784   4.206   0.583
 1505SOL    HW2 4557   1.827   4.325   0.663
 1506SOL     OW 4558   2.670   3.801   0.572
 1506SOL    HW1 4559   2.715   3.876   0.526
 1506SOL    HW2 4560   2.576   3.824   0.556
 1507SOL     OW 4561   2.203   3.962   1.825
 1507SOL    HW1 4562   2.232   4.049   1.797
 1507SOL    HW2 4563   2.107   3.975   1.834
 1508SOL     OW 4564   3.146   4.106   0.934
 1508SOL    HW1 4565   3.057   4.067   0.938
 1508SOL    HW2 4566   3.196   4.042   0.987
 1509SOL     OW 4567   3.204   4.270   1.704
 1509SOL    HW1 4568   3.201   4.312   1.793
 1509SOL    HW2 4569   3.245   4.184   1.724
 1510SOL     OW 4570   2.904   4.150   1.160
 1510SOL    HW1 4571   2.807   4.151   1.173
 1510SOL    HW2 4572   2.912   4.073   1.100
 1511SOL     OW 4573   2.908   0.103   0.441
 1511SOL    HW1 4574   2.987   0.144   0.483
 1511SOL    HW2 4575   2.837   0.137   0.499
 1512SOL     OW 4576   1.912   0.065   0.800
 1512SOL    HW1 4577   2.009   0.057   0.799
 1512SOL    HW2 4578   1.898   0.152   0.760
 1513SOL     OW 4579   3.540   4.328   1.879
 1513SOL    HW1 4580   3.630   4.364   1.884
 1513SOL    HW2 4581   3.551   4.250   1.821
 1514SOL     OW 4582   2.400   3.831   0.938
 1514SOL    HW1 4583   2.413   3.882   1.020
 1514SOL    HW2 4584   2.418   3.896   0.870
 1515SOL     OW 4585   3.381   0.108   0.756
 1515SOL    HW1 4586   3.383   0.048   0.833
 1515SOL    HW2 4587   3.404   0.193   0.798
 1516SOL     OW 4588   2.081   3.961   1.498
 1516SOL    HW1 4589   2.028   4.026   1.545
 1516SOL    HW2 4590   2.032   3.878   1.518
 1517SOL     OW 4591   3.199   3.821   0.445
 1517SOL    HW1 4592   3.138   3.836   0.369
 1517SOL    HW2 4593   3.282   3.810   0.397
 1518SOL     OW 4594   3.301   4.020   1.753
 1518SOL    HW1 4595   3.302   4.002   1.850
 1518SOL    HW2 4596   3.246   3.948   1.720
 1519SOL     OW 4597   2.684   3.955   1.734
 1519SOL    HW1 4598   2.767   3.907   1.726
 1519SOL    HW2 4599   2.646   3.918   1.816
 1520SOL     OW 4600   3.200   4.323   1.438
 1520SOL    HW1 4601   3.208   4.295   1.531
 1520SOL    HW2 4602   3.124   4.384   1.443
 1521SOL     OW 4603   2.411   3.873   0.521
 1521SOL    HW1 4604   2.332   3.829   0.556
 1521SOL    HW2 4605   2.374   3.933   0.454
 1522SOL     OW 4606   2.806   4.006   0.458
 1522SOL    HW1 4607   2.806   4.093   0.415
 1522SOL    HW2 4608   2.894   4.007   0.500
 1523SOL     OW 4609   1.922   4.271   1.377
 1523SOL    HW1 4610   2.019   4.277   1.377
 1523SOL    HW2 4611   1.894   4.363   1.361
 1524SOL     OW 4612   2.425   3.965   1.177
 1524SOL    HW1 4613   2.469   3.923   1.253
 1524SOL    HW2 4614   2.330   3.954   1.200
 1525SOL     OW 4615   2.866   3.784   0.770
 1525SOL    HW1 4616   2.801   3.803   0.700
 1525SOL    HW2 4617   2.825   3.706   0.813
 1526SOL     OW 4618   3.372   4.270   0.964
 1526SOL    HW1 4619   3.286   4.227   0.979
 1526SOL    HW2 4620   3.413   4.265   1.054
 1527SOL     OW 4621   2.292   4.045   0.325
 1527SOL    HW1 4622   2.328   4.001   0.246
 1527SOL    HW2 4623   2.248   4.122   0.286
 1528SOL     OW 4624   2.744   3.810   1.357
 1528SOL    HW1 4625   2.780   3.775   1.274
 1528SOL    HW2 4626   2.820   3.865   1.388
 1529SOL     OW 4627   3.145   4.097   1.282
 1529SOL    HW1 4628   3.169   4.175   1.335
 1529SOL    HW2 4629   3.061   4.125   1.241
 1530SOL     OW 4630   2.349   4.285   0.885
 1530SOL    HW1 4631   2.347   4.327   0.797
 1530SOL    HW2 4632   2.442   4.296   0.910
 1531SOL     OW 4633   2.354   3.747   1.759
 1531SOL    HW1 4634   2.291   3.692   1.707
 1531SOL    HW2 4635   2.301   3.827   1.774
 1532SOL     OW 4636   2.164   3.914   1.238
 1532SOL    HW1 4637   2.125   3.933   1.326
 1532SOL    HW2 4638   2.147   3.818   1.230
 1533SOL     OW 4639   2.607   0.013   0.954
 1533SOL    HW1 4640   2.690   0.027   0.905
 1533SOL    HW2 4641   2.575   0.105   0.965
 1534SOL     OW 4642   2.179   3.777   0.647
 1534SOL    HW1 4643   2.141   3.865   0.668
 1534SOL    HW2 4644   2.181   3.735   0.735
 1535SOL     OW 4645   3.547   4.131   0.353
 1535SOL    HW1 4646   3.546   4.045   0.398
 1535SOL    HW2 4647   3.452   4.149   0.339
 1536SOL     OW 4648   3.407   3.985   0.102
 1536SOL    HW1 4649   3.406   3.910   0.163
 1536SOL    HW2 4650   3.492   4.028   0.120
 1537SOL     OW 4651   2.165   4.235   1.075
 1537SOL    HW1 4652   2.139   4.148   1.040
 1537SOL    HW2 4653   2.233   4.261   1.009
 1538SOL     OW 4654   2.964   4.158   1.613
 1538SOL    HW1 4655   2.886   4.197   1.655
 1538SOL    HW2 4656   3.039   4.205   1.654
 1539SOL     OW 4657   2.952   3.957   1.433
 1539SOL    HW1 4658   2.951   4.023   1.504
 1539SOL    HW2 4659   3.030   3.985   1.382
 1540SOL     OW 4660   1.862   4.236   1.110
 1540SOL    HW1 4661   1.942   4.230   1.057
 1540SOL    HW2 4662   1.897   4.229   1.200
 1541SOL     OW 4663   2.071   4.209   1.674
 1541SOL    HW1 4664   2.148   4.217   1.616
 1541SOL    HW2 4665   2.033   4.299   1.669
 1542SOL     OW 4666   2.595   4.329   0.227
 1542SOL    HW1 4667   2.683   4.294   0.249
 1542SOL    HW2 4668   2.563   4.360   0.314
 1543SOL     OW 4669   3.491   4.241   1.204
 1543SOL    HW1 4670   3.471   4.186   1.281
 1543SOL    HW2 4671   3.587   4.227   1.193
 1544SOL     OW 4672   2.634   4.158   1.155
 1544SOL    HW1 4673   2.556   4.099   1.153
 1544SOL    HW2 4674   2.615   4.221   1.083
 1545SOL     OW 4675   3.593   3.880   0.478
 1545SOL    HW1 4676   3.670   3.829   0.447
 1545SOL    HW2 4677   3.530   3.810   0.497
 1546SOL     OW 4678   3.720   3.849   0.971
 1546SOL    HW1 4679   3.752   3.761   0.944
 1546SOL    HW2 4680   3.627   3.849   0.938
 1547SOL     OW 4681   2.071   4.018   0.720
 1547SOL    HW1 4682   1.974   4.028   0.706
 1547SOL    HW2 4683   2.077   4.019   0.817
 1548SOL     OW 4684   2.928   3.930   0.996
 1548SOL    HW1 4685   2.909   3.892   0.908
 1548SOL    HW2 4686   2.907   3.854   1.054
 1549SOL     OW 4687   3.645   4.081   1.453
 1549SOL    HW1 4688   3.696   4.162   1.433
 1549SOL    HW2 4689   3.655   4.028   1.371
 1550SOL     OW 4690   2.530   3.913   1.498
 1550SOL    HW1 4691   2.604   3.882   1.442
 1550SOL    HW2 4692   2.577   3.931   1.582
 1551SOL     OW 4693   3.971   1.947   3.051
 1551SOL    HW1 4694   3.898   1.897   3.090
 1551SOL    HW2 4695   3.992   1.895   2.973
 1552SOL     OW 4696   1.878   3.836   0.383
 1552SOL    HW1 4697   1.897   3.830   0.288
 1552SOL    HW2 4698   1.939   3.771   0.421
 1553SOL     OW 4699   2.725   4.236   1.732
 1553SOL    HW1 4700   2.636   4.260   1.702
 1553SOL    HW2 4701   2.715   4.139   1.743
 1554SOL     OW 4702   3.054   4.032   0.553
 1554SOL    HW1 4703   3.117   3.965   0.522
 1554SOL    HW2 4704   3.113   4.099   0.592
 1555SOL     OW 4705   3.559   4.107   1.715
 1555SOL    HW1 4706   3.582   4.093   1.621
 1555SOL    HW2 4707   3.468   4.070   1.720
 1556SOL     OW 4708   3.697   3.916   1.233
 1556SOL    HW1 4709   3.705   3.824   1.263
 1556SOL    HW2 4710   3.695   3.902   1.137
 1557SOL     OW 4711   2.184   4.193   0.538
 1557SOL    HW1 4712   2.228   4.131   0.478
 1557SOL    HW2 4713   2.143   4.132   0.603
 1558SOL     OW 4714   2.191   4.283   1.339
 1558SOL    HW1 4715   2.252   4.219   1.378
 1558SOL    HW2 4716   2.191   4.259   1.244
 1559SOL     OW 4717   3.277   3.939   1.105
 1559SOL    HW1 4718   3.273   3.849   1.139
 1559SOL    HW2 4719   3.237   3.991   1.177
 1560SOL     OW 4720   2.868   3.688   1.137
 1560SOL    HW1 4721   2.812   3.608   1.136
 1560SOL    HW2 4722   2.957   3.650   1.121
 1561SOL     OW 4723   3.217   4.209   0.684
 1561SOL    HW1 4724   3.246   4.301   0.691
 1561SOL    HW2 4725   3.185   4.189   0.774
 1562SOL     OW 4726   3.457   3.865   0.913
 1562SOL    HW1 4727   3.394   3.899   0.979
 1562SOL    HW2 4728   3.456   3.937   0.847
 1563SOL     OW 4729   2.065   3.968   2.843
 1563SOL    HW1 4730   2.106   3.887   2.810
 1563SOL    HW2 4731   1.971   3.942   2.849
 1564SOL     OW 4732   1.881   4.092   2.498
 1564SOL    HW1 4733   1.803   4.112   2.553
 1564SOL    HW2 4734   1.843   4.029   2.435
 1565SOL     OW 4735   3.404   4.327   2.117
 1565SOL    HW1 4736   3.464   4.327   2.039
 1565SOL    HW2 4737   3.420   4.239   2.155
 1566SOL     OW 4738   3.399   4.135   2.510
 1566SOL    HW1 4739   3.303   4.129   2.528
 1566SOL    HW2 4740   3.414   4.230   2.525
 1567SOL     OW 4741   1.270   1.681   0.318
 1567SOL    HW1 4742   1.259   1.635   0.233
 1567SOL    HW2 4743   1.207   1.754   0.309
 1568SOL     OW 4744   1.994   4.288   2.344
 1568SOL    HW1 4745   1.954   4.217   2.398
 1568SOL    HW2 4746   2.075   4.306   2.394
 1569SOL     OW 4747   2.715   3.741   2.333
 1569SOL    HW1 4748   2.743   3.834   2.317
 1569SOL    HW2 4749   2.618   3.752   2.336
 1570SOL     OW 4750   3.167   4.031   2.846
 1570SOL    HW1 4751   3.082   3.992   2.816
 1570SOL    HW2 4752   3.219   3.953   2.867
 1571SOL     OW 4753   1.948   0.143   2.590
 1571SOL    HW1 4754   2.021   0.081   2.572
 1571SOL    HW2 4755   1.998   0.227   2.592
 1572SOL     OW 4756   2.804   4.081   2.058
 1572SOL    HW1 4757   2.879   4.038   2.016
 1572SOL    HW2 4758   2.803   4.042   2.147
 1573SOL     OW 4759   2.388   3.871   2.813
 1573SOL    HW1 4760   2.365   3.892   2.905
 1573SOL    HW2 4761   2.386   3.960   2.773
 1574SOL     OW 4762   3.383   0.071   2.572
 1574SOL    HW1 4763   3.350   0.026   2.653
 1574SOL    HW2 4764   3.411   0.156   2.609
 1575SOL     OW 4765   3.262   3.804   2.369
 1575SOL    HW1 4766   3.248   3.783   2.274
 1575SOL    HW2 4767   3.354   3.776   2.383
 1576SOL     OW 4768   2.539   3.828   1.947
 1576SOL    HW1 4769   2.560   3.744   1.990
 1576SOL    HW2 4770   2.472   3.801   1.881
 1577SOL     OW 4771   1.174   2.101   0.176
 1577SOL    HW1 4772   1.146   2.054   0.255
 1577SOL    HW2 4773   1.191   2.192   0.210
 1578SOL     OW 4774   2.450   3.799   2.322
 1578SOL    HW1 4775   2.373   3.803   2.382
 1578SOL    HW2 4776   2.446   3.885   2.276
 1579SOL     OW 4777   2.131   3.771   2.013
 1579SOL    HW1 4778   2.183   3.836   1.962
 1579SOL    HW2 4779   2.200   3.720   2.059
 1580SOL     OW 4780   2.799   3.999   2.316
 1580SOL    HW1 4781   2.770   4.071   2.373
 1580SOL    HW2 4782   2.894   3.991   2.340
 1581SOL     OW 4783   4.126   2.010   0.226
 1581SOL    HW1 4784   4.212   1.976   0.193
 1581SOL    HW2 4785   4.140   2.107   0.225
 1582SOL     OW 4786   0.153   1.703   0.025
 1582SOL    HW1 4787   0.223   1.636   0.027
 1582SOL    HW2 4788   0.083   1.656   0.074
 1583SOL     OW 4789   2.877   3.736   2.557
 1583SOL    HW1 4790   2.824   3.738   2.475
 1583SOL    HW2 4791   2.830   3.669   2.610
 1584SOL     OW 4792   3.308   4.267   2.792
 1584SOL    HW1 4793   3.262   4.186   2.821
 1584SOL    HW2 4794   3.373   4.279   2.865
 1585SOL     OW 4795   2.461   4.015   2.145
 1585SOL    HW1 4796   2.491   3.957   2.072
 1585SOL    HW2 4797   2.511   4.097   2.127
 1586SOL     OW 4798   2.517   0.035   2.862
 1586SOL    HW1 4799   2.467  -0.033   2.812
 1586SOL    HW2 4800   2.476   0.117   2.828
 1587SOL     OW 4801   2.215   3.785   2.468
 1587SOL    HW1 4802   2.192   3.881   2.474
 1587SOL    HW2 4803   2.204   3.756   2.560
 1588SOL     OW 4804   3.426   4.082   2.236
 1588SOL    HW1 4805   3.499   4.018   2.246
 1588SOL    HW2 4806   3.404   4.099   2.329
 1589SOL     OW 4807   3.298   3.967   2.015
 1589SOL    HW1 4808   3.271   3.881   2.050
 1589SOL    HW2 4809   3.337   4.010   2.093
 1590SOL     OW 4810   2.129   4.213   2.913
 1590SOL    HW1 4811   2.100   4.122   2.886
 1590SOL    HW2 4812   2.203   4.222   2.851
 1591SOL     OW 4813   2.849   0.158   3.051
 1591SOL    HW1 4814   2.927   0.146   3.108
 1591SOL    HW2 4815   2.781   0.177   3.118
 1592SOL     OW 4816   6.190   4.201   3.025
 1592SOL    HW1 4817   6.265   4.213   2.964
 1592SOL    HW2 4818   6.235   4.178   3.108
 1593SOL     OW 4819   2.604   4.255   2.106
 1593SOL    HW1 4820   2.683   4.202   2.080
 1593SOL    HW2 4821   2.631   4.290   2.193
 1594SOL     OW 4822   3.468   4.279   3.004
 1594SOL    HW1 4823   3.410   4.274   3.082
 1594SOL    HW2 4824   3.549   4.314   3.044
 1595SOL     OW 4825   3.617   3.901   2.299
 1595SOL    HW1 4826   3.680   3.881   2.226
 1595SOL    HW2 4827   3.588   3.813   2.327
 1596SOL     OW 4828   3.677   3.875   2.878
 1596SOL    HW1 4829   3.703   3.789   2.839
 1596SOL    HW2 4830   3.608   3.904   2.816
 1597SOL     OW 4831   2.162   4.046   2.491
 1597SOL    HW1 4832   2.070   4.067   2.516
 1597SOL    HW2 4833   2.214   4.083   2.565
 1598SOL     OW 4834   2.944   3.930   2.740
 1598SOL    HW1 4835   2.928   3.864   2.671
 1598SOL    HW2 4836   2.857   3.971   2.750
 1599SOL     OW 4837   1.939   4.041   1.845
 1599SOL    HW1 4838   1.852   4.035   1.802
 1599SOL    HW2 4839   1.980   4.113   1.795
 1600SOL     OW 4840   1.894   3.870   2.092
 1600SOL    HW1 4841   1.882   3.931   2.018
 1600SOL    HW2 4842   1.985   3.838   2.076
 1601SOL     OW 4843   3.054   3.984   2.383
 1601SOL    HW1 4844   3.130   3.923   2.376
 1601SOL    HW2 4845   3.084   4.046   2.452
 1602SOL     OW 4846   2.297   4.188   2.287
 1602SOL    HW1 4847   2.345   4.120   2.238
 1602SOL    HW2 4848   2.248   4.136   2.353
 1603SOL     OW 4849   3.233   3.718   2.115
 1603SOL    HW1 4850   3.301   3.648   2.110
 1603SOL    HW2 4851   3.154   3.671   2.081
 1604SOL     OW 4852   3.137   4.148   2.580
 1604SOL    HW1 4853   3.111   4.240   2.592
 1604SOL    HW2 4854   3.133   4.114   2.671
 1605SOL     OW 4855   3.482   3.939   2.706
 1605SOL    HW1 4856   3.409   3.884   2.736
 1605SOL    HW2 4857   3.441   4.001   2.644
 1606SOL     OW 4858   3.938   0.320   0.994
 1606SOL    HW1 4859   3.988   0.281   1.068
 1606SOL    HW2 4860   3.853   0.273   1.001
 1607SOL     OW 4861   3.690   0.430   0.662
 1607SOL    HW1 4862   3.607   0.472   0.690
 1607SOL    HW2 4863   3.654   0.352   0.616
 1608SOL     OW 4864   4.422   0.999   0.703
 1608SOL    HW1 4865   4.490   1.053   0.745
 1608SOL    HW2 4866   4.347   1.061   0.694
 1609SOL     OW 4867   4.035   1.398   1.047
 1609SOL    HW1 4868   3.977   1.319   1.050
 1609SOL    HW2 4869   4.003   1.441   0.967
 1610SOL     OW 4870   4.199   0.459   1.483
 1610SOL    HW1 4871   4.291   0.477   1.457
 1610SOL    HW2 4872   4.207   0.462   1.580
 1611SOL     OW 4873   4.070   1.639   0.467
 1611SOL    HW1 4874   4.079   1.725   0.510
 1611SOL    HW2 4875   4.164   1.611   0.457
 1612SOL     OW 4876   4.004   1.369   0.466
 1612SOL    HW1 4877   4.027   1.463   0.472
 1612SOL    HW2 4878   3.941   1.358   0.539
 1613SOL     OW 4879   4.032   1.090   0.862
 1613SOL    HW1 4880   4.039   1.000   0.898
 1613SOL    HW2 4881   3.972   1.131   0.929
 1614SOL     OW 4882   3.828   0.669   0.608
 1614SOL    HW1 4883   3.778   0.588   0.629
 1614SOL    HW2 4884   3.824   0.717   0.694
 1615SOL     OW 4885   3.867   0.752   1.655
 1615SOL    HW1 4886   3.962   0.778   1.658
 1615SOL    HW2 4887   3.826   0.840   1.663
 1616SOL     OW 4888   3.968   0.973   1.313
 1616SOL    HW1 4889   4.056   0.947   1.345
 1616SOL    HW2 4890   3.970   0.945   1.221
 1617SOL     OW 4891   4.061   0.219   1.735
 1617SOL    HW1 4892   4.119   0.298   1.741
 1617SOL    HW2 4893   4.041   0.204   1.829
 1618SOL     OW 4894   3.822   0.797   0.848
 1618SOL    HW1 4895   3.897   0.811   0.908
 1618SOL    HW2 4896   3.761   0.867   0.878
 1619SOL     OW 4897   3.838   1.942   1.644
 1619SOL    HW1 4898   3.845   1.894   1.729
 1619SOL    HW2 4899   3.757   1.995   1.657
 1620SOL     OW 4900   0.210   0.294   0.225
 1620SOL    HW1 4901   0.274   0.353   0.179
 1620SOL    HW2 4902   0.225   0.211   0.176
 1621SOL     OW 4903   4.047   1.813   0.806
 1621SOL    HW1 4904   4.095   1.732   0.824
 1621SOL    HW2 4905   4.115   1.881   0.828
 1622SOL     OW 4906   4.168   1.231   1.727
 1622SOL    HW1 4907   4.136   1.250   1.636
 1622SOL    HW2 4908   4.107   1.287   1.779
 1623SOL     OW 4909   3.968   0.312   1.477
 1623SOL    HW1 4910   4.047   0.369   1.479
 1623SOL    HW2 4911   3.978   0.264   1.561
 1624SOL     OW 4912   4.033   1.790   1.271
 1624SOL    HW1 4913   4.031   1.790   1.369
 1624SOL    HW2 4914   4.071   1.703   1.253
 1625SOL     OW 4915   4.083   0.729   0.509
 1625SOL    HW1 4916   4.124   0.648   0.544
 1625SOL    HW2 4917   3.993   0.720   0.544
 1626SOL     OW 4918   0.020   0.070   0.006
 1626SOL    HW1 4919   0.113   0.066   0.034
 1626SOL    HW2 4920   0.004   0.166   0.003
 1627SOL     OW 4921   4.197   0.063   0.363
 1627SOL    HW1 4922   4.147   0.059   0.448
 1627SOL    HW2 4923   4.274   0.117   0.389
 1628SOL     OW 4924   4.213   1.172   0.676
 1628SOL    HW1 4925   4.155   1.149   0.751
 1628SOL    HW2 4926   4.156   1.147   0.601
 1629SOL     OW 4927   3.838   0.597   1.427
 1629SOL    HW1 4928   3.916   0.628   1.379
 1629SOL    HW2 4929   3.832   0.661   1.500
 1630SOL     OW 4930   4.310   0.240   1.124
 1630SOL    HW1 4931   4.333   0.147   1.140
 1630SOL    HW2 4932   4.219   0.246   1.157
 1631SOL     OW 4933   4.209   0.855   1.408
 1631SOL    HW1 4934   4.294   0.865   1.361
 1631SOL    HW2 4935   4.170   0.777   1.364
 1632SOL     OW 4936   3.831   1.554   1.338
 1632SOL    HW1 4937   3.818   1.643   1.303
 1632SOL    HW2 4938   3.928   1.543   1.331
 1633SOL     OW 4939   4.029   1.098   0.470
 1633SOL    HW1 4940   4.037   1.188   0.434
 1633SOL    HW2 4941   4.087   1.044   0.413
 1634SOL     OW 4942   4.271   0.619   0.933
 1634SOL    HW1 4943   4.321   0.658   0.859
 1634SOL    HW2 4944   4.332   0.632   1.007
 1635SOL     OW 4945   4.100   1.508   1.287
 1635SOL    HW1 4946   4.091   1.464   1.200
 1635SOL    HW2 4947   4.196   1.505   1.303
 1636SOL     OW 4948   4.132   0.817   1.665
 1636SOL    HW1 4949   4.161   0.842   1.575
 1636SOL    HW2 4950   4.211   0.776   1.701
 1637SOL     OW 4951   4.199   4.316   1.694
 1637SOL    HW1 4952   4.151   4.260   1.629
 1637SOL    HW2 4953   4.149   4.400   1.690
 1638SOL     OW 4954   4.268   0.946   1.092
 1638SOL    HW1 4955   4.298   1.028   1.048
 1638SOL    HW2 4956   4.343   0.928   1.151
 1639SOL     OW 4957   4.049   0.225   1.226
 1639SOL    HW1 4958   4.025   0.264   1.311
 1639SOL    HW2 4959   4.047   0.130   1.249
 1640SOL     OW 4960   3.760   1.304   1.252
 1640SOL    HW1 4961   3.781   1.250   1.330
 1640SOL    HW2 4962   3.778   1.394   1.281
 1641SOL     OW 4963   4.056   0.090   0.587
 1641SOL    HW1 4964   4.013   0.163   0.634
 1641SOL    HW2 4965   3.987   0.020   0.588
 1642SOL     OW 4966   4.050   1.014   1.843
 1642SOL    HW1 4967   4.102   1.089   1.808
 1642SOL    HW2 4968   4.084   0.940   1.789
 1643SOL     OW 4969   4.028   0.850   1.026
 1643SOL    HW1 4970   4.119   0.879   1.049
 1643SOL    HW2 4971   4.034   0.754   1.039
 1644SOL     OW 4972   4.041   0.569   1.052
 1644SOL    HW1 4973   4.007   0.484   1.018
 1644SOL    HW2 4974   4.123   0.580   0.999
 1645SOL     OW 4975   3.801   1.801   0.940
 1645SOL    HW1 4976   3.768   1.721   0.894
 1645SOL    HW2 4977   3.889   1.811   0.901
 1646SOL     OW 4978   3.703   0.445   1.169
 1646SOL    HW1 4979   3.693   0.366   1.113
 1646SOL    HW2 4980   3.764   0.499   1.117
 1647SOL     OW 4981   3.937   0.505   1.754
 1647SOL    HW1 4982   4.033   0.496   1.747
 1647SOL    HW2 4983   3.921   0.592   1.713
 1648SOL     OW 4984   4.391   0.518   0.283
 1648SOL    HW1 4985   4.445   0.437   0.273
 1648SOL    HW2 4986   4.427   0.557   0.365
 1649SOL     OW 4987   3.918   1.567   1.697
 1649SOL    HW1 4988   3.907   1.640   1.760
 1649SOL    HW2 4989   3.953   1.496   1.755
 1650SOL     OW 4990   4.125   0.456   0.309
 1650SOL    HW1 4991   4.218   0.482   0.293
 1650SOL    HW2 4992   4.077   0.523   0.258
 1651SOL     OW 4993   3.827   1.143   1.466
 1651SOL    HW1 4994   3.824   1.096   1.552
 1651SOL    HW2 4995   3.872   1.076   1.410
 1652SOL     OW 4996   3.847   1.193   1.025
 1652SOL    HW1 4997   3.806   1.229   1.106
 1652SOL    HW2 4998   3.779   1.130   0.995
 1653SOL     OW 4999   3.888   1.787   1.861
 1653SOL    HW1 5000   3.852   1.717   1.920
 1653SOL    HW2 5001   3.935   1.843   1.925
 1654SOL     OW 5002   3.928   0.310   0.716
 1654SOL    HW1 5003   3.851   0.367   0.699
 1654SOL    HW2 5004   3.947   0.327   0.810
 1655SOL     OW 5005   4.065   1.298   1.490
 1655SOL    HW1 5006   4.068   1.368   1.423
 1655SOL    HW2 5007   3.981   1.254   1.472
 1656SOL     OW 5008   4.327   1.557   0.452
 1656SOL    HW1 5009   4.358   1.476   0.497
 1656SOL    HW2 5010   4.403   1.618   0.463
 1657SOL     OW 5011   3.811   1.017   1.709
 1657SOL    HW1 5012   3.735   1.019   1.771
 1657SOL    HW2 5013   3.886   1.028   1.769
 1658SOL     OW 5014   4.013   1.770   1.537
 1658SOL    HW1 5015   3.942   1.828   1.571
 1658SOL    HW2 5016   3.994   1.687   1.584
 1659SOL     OW 5017   0.295   1.463   0.010
 1659SOL    HW1 5018   0.226   1.400   0.035
 1659SOL    HW2 5019   0.309   1.445  -0.085
 1660SOL     OW 5020   3.994   1.372   1.875
 1660SOL    HW1 5021   3.910   1.338   1.910
 1660SOL    HW2 5022   4.040   1.397   1.956
 1661SOL     OW 5023   3.860   1.203   0.663
 1661SOL    HW1 5024   3.905   1.168   0.742
 1661SOL    HW2 5025   3.906   1.155   0.592
 1662SOL     OW 5026   4.420   1.326   1.713
 1662SOL    HW1 5027   4.331   1.293   1.734
 1662SOL    HW2 5028   4.413   1.345   1.619
 1663SOL     OW 5029   4.127   0.456   0.580
 1663SOL    HW1 5030   4.116   0.448   0.483
 1663SOL    HW2 5031   4.053   0.405   0.615
 1664SOL     OW 5032   4.083   0.638   1.309
 1664SOL    HW1 5033   4.125   0.562   1.354
 1664SOL    HW2 5034   4.072   0.607   1.217
 1665SOL     OW 5035   3.788   1.002   0.361
 1665SOL    HW1 5036   3.870   1.027   0.407
 1665SOL    HW2 5037   3.795   0.905   0.356
 1666SOL     OW 5038   3.931   0.546   2.028
 1666SOL    HW1 5039   3.841   0.568   2.055
 1666SOL    HW2 5040   3.919   0.521   1.935
 1667SOL     OW 5041   3.904   0.333   2.873
 1667SOL    HW1 5042   3.959   0.269   2.922
 1667SOL    HW2 5043   3.813   0.306   2.896
 1668SOL     OW 5044   3.704   0.426   2.495
 1668SOL    HW1 5045   3.613   0.451   2.518
 1668SOL    HW2 5046   3.690   0.361   2.423
 1669SOL     OW 5047   4.415   1.088   2.471
 1669SOL    HW1 5048   4.489   1.066   2.532
 1669SOL    HW2 5049   4.339   1.090   2.531
 1670SOL     OW 5050   4.031   1.432   2.961
 1670SOL    HW1 5051   4.053   1.356   3.019
 1670SOL    HW2 5052   4.029   1.390   2.875
 1671SOL     OW 5053   3.921   1.785   2.299
 1671SOL    HW1 5054   3.949   1.832   2.380
 1671SOL    HW2 5055   3.964   1.839   2.229
 1672SOL     OW 5056   3.931   1.513   2.319
 1672SOL    HW1 5057   3.934   1.610   2.306
 1672SOL    HW2 5058   3.888   1.506   2.405
 1673SOL     OW 5059   3.977   1.106   2.756
 1673SOL    HW1 5060   3.994   1.018   2.793
 1673SOL    HW2 5061   3.882   1.100   2.734
 1674SOL     OW 5062   3.838   0.658   2.420
 1674SOL    HW1 5063   3.798   0.575   2.451
 1674SOL    HW2 5064   3.837   0.713   2.501
 1675SOL     OW 5065   3.793   1.580   2.005
 1675SOL    HW1 5066   3.774   1.489   2.031
 1675SOL    HW2 5067   3.744   1.632   2.071
 1676SOL     OW 5068   4.204   0.821   2.151
 1676SOL    HW1 5069   4.272   0.884   2.180
 1676SOL    HW2 5070   4.183   0.770   2.233
 1677SOL     OW 5071   3.831   0.816   2.635
 1677SOL    HW1 5072   3.904   0.819   2.700
 1677SOL    HW2 5073   3.788   0.901   2.650
 1678SOL     OW 5074   4.668   0.304   1.881
 1678SOL    HW1 5075   4.709   0.367   1.944
 1678SOL    HW2 5076   4.665   0.223   1.934
 1679SOL     OW 5077   4.067   1.823   2.801
 1679SOL    HW1 5078   4.111   1.737   2.798
 1679SOL    HW2 5079   4.143   1.884   2.801
 1680SOL     OW 5080   3.999   0.997   2.112
 1680SOL    HW1 5081   4.013   1.011   2.017
 1680SOL    HW2 5082   4.067   0.930   2.130
 1681SOL     OW 5083   4.110   0.668   2.355
 1681SOL    HW1 5084   4.129   0.576   2.380
 1681SOL    HW2 5085   4.014   0.672   2.369
 1682SOL     OW 5086   4.297   0.039   1.947
 1682SOL    HW1 5087   4.352  -0.041   1.960
 1682SOL    HW2 5088   4.269   0.026   1.855
 1683SOL     OW 5089   4.132   0.186   2.269
 1683SOL    HW1 5090   4.118   0.096   2.302
 1683SOL    HW2 5091   4.226   0.186   2.241
 1684SOL     OW 5092   4.054   0.160   2.004
 1684SOL    HW1 5093   4.136   0.110   1.991
 1684SOL    HW2 5094   4.066   0.192   2.095
 1685SOL     OW 5095   4.185   1.199   2.611
 1685SOL    HW1 5096   4.113   1.168   2.670
 1685SOL    HW2 5097   4.138   1.200   2.526
 1686SOL     OW 5098   2.106   3.014   0.050
 1686SOL    HW1 5099   2.042   3.068   0.100
 1686SOL    HW2 5100   2.071   2.924   0.065
 1687SOL     OW 5101   1.627   3.680   0.014
 1687SOL    HW1 5102   1.645   3.768   0.049
 1687SOL    HW2 5103   1.710   3.658  -0.032
 1688SOL     OW 5104   4.023   1.180   2.388
 1688SOL    HW1 5105   4.036   1.236   2.309
 1688SOL    HW2 5106   4.012   1.093   2.348
 1689SOL     OW 5107   4.266   0.552   2.776
 1689SOL    HW1 5108   4.314   0.627   2.736
 1689SOL    HW2 5109   4.312   0.545   2.863
 1690SOL     OW 5110   1.937   3.741   0.127
 1690SOL    HW1 5111   1.918   3.706   0.038
 1690SOL    HW2 5112   2.034   3.735   0.131
 1691SOL     OW 5113   4.292   0.903   2.848
 1691SOL    HW1 5114   4.323   0.995   2.844
 1691SOL    HW2 5115   4.293   0.884   2.944
 1692SOL     OW 5116   4.109   0.099   2.606
 1692SOL    HW1 5117   4.050   0.177   2.601
 1692SOL    HW2 5118   4.080   0.048   2.528
 1693SOL     OW 5119   4.027   0.842   2.822
 1693SOL    HW1 5120   4.123   0.858   2.825
 1693SOL    HW2 5121   4.021   0.753   2.861
 1694SOL     OW 5122   4.023   0.575   2.902
 1694SOL    HW1 5123   3.976   0.490   2.888
 1694SOL    HW2 5124   4.104   0.561   2.849
 1695SOL     OW 5125   3.779   1.287   2.032
 1695SOL    HW1 5126   3.690   1.312   1.999
 1695SOL    HW2 5127   3.760   1.200   2.072
 1696SOL     OW 5128   3.788   1.776   2.832
 1696SOL    HW1 5129   3.763   1.698   2.778
 1696SOL    HW2 5130   3.883   1.785   2.813
 1697SOL     OW 5131   3.753   0.597   3.053
 1697SOL    HW1 5132   3.839   0.604   3.009
 1697SOL    HW2 5133   3.775   0.611   3.146
 1698SOL     OW 5134   4.514   0.484   2.180
 1698SOL    HW1 5135   4.459   0.404   2.177
 1698SOL    HW2 5136   4.492   0.524   2.266
 1699SOL     OW 5137   4.183   0.624   1.967
 1699SOL    HW1 5138   4.200   0.699   2.027
 1699SOL    HW2 5139   4.097   0.592   2.003
 1700SOL     OW 5140   3.927   0.309   2.605
 1700SOL    HW1 5141   3.848   0.352   2.567
 1700SOL    HW2 5142   3.922   0.337   2.698
 1701SOL     OW 5143   4.380   1.567   2.290
 1701SOL    HW1 5144   4.391   1.500   2.359
 1701SOL    HW2 5145   4.450   1.631   2.311
 1702SOL     OW 5146   4.033   1.329   2.157
 1702SOL    HW1 5147   3.948   1.303   2.119
 1702SOL    HW2 5148   4.007   1.406   2.211
 1703SOL     OW 5149   2.184   2.359   0.223
 1703SOL    HW1 5150   2.115   2.422   0.193
 1703SOL    HW2 5151   2.176   2.364   0.320
 1704SOL     OW 5152   3.741   0.338   1.839
 1704SOL    HW1 5153   3.676   0.408   1.823
 1704SOL    HW2 5154   3.821   0.378   1.801
 1705SOL     OW 5155   3.780   0.184   2.056
 1705SOL    HW1 5156   3.757   0.241   1.980
 1705SOL    HW2 5157   3.874   0.168   2.041
 1706SOL     OW 5158   3.816   1.313   2.543
 1706SOL    HW1 5159   3.788   1.233   2.592
 1706SOL    HW2 5160   3.891   1.278   2.492
 1707SOL     OW 5161   4.129   0.400   2.436
 1707SOL    HW1 5162   4.123   0.333   2.365
 1707SOL    HW2 5163   4.053   0.377   2.491
 1708SOL     OW 5164   1.975   2.781   0.085
 1708SOL    HW1 5165   1.998   2.692   0.115
 1708SOL    HW2 5166   1.932   2.763  -0.001
 1709SOL     OW 5167   3.744   1.046   2.175
 1709SOL    HW1 5168   3.839   1.033   2.153
 1709SOL    HW2 5169   3.716   0.954   2.188
 1710SOL     OW 5170   3.950   2.187   0.971
 1710SOL    HW1 5171   3.991   2.148   1.050
 1710SOL    HW2 5172   3.861   2.146   0.975
 1711SOL     OW 5173   3.704   2.312   0.629
 1711SOL    HW1 5174   3.615   2.305   0.668
 1711SOL    HW2 5175   3.695   2.257   0.549
 1712SOL     OW 5176   4.431   2.841   0.655
 1712SOL    HW1 5177   4.499   2.868   0.719
 1712SOL    HW2 5178   4.355   2.896   0.682
 1713SOL     OW 5179   4.050   3.280   1.038
 1713SOL    HW1 5180   3.967   3.229   1.037
 1713SOL    HW2 5181   4.082   3.269   0.949
 1714SOL     OW 5182   4.127   2.291   1.591
 1714SOL    HW1 5183   4.152   2.238   1.669
 1714SOL    HW2 5184   4.071   2.227   1.543
 1715SOL     OW 5185   4.009   3.549   0.471
 1715SOL    HW1 5186   4.037   3.616   0.537
 1715SOL    HW2 5187   4.096   3.511   0.447
 1716SOL     OW 5188   3.911   3.291   0.428
 1716SOL    HW1 5189   3.940   3.383   0.441
 1716SOL    HW2 5190   3.895   3.261   0.518
 1717SOL     OW 5191   4.005   3.003   0.852
 1717SOL    HW1 5192   3.999   2.908   0.871
 1717SOL    HW2 5193   3.946   3.041   0.919
 1718SOL     OW 5194   3.820   2.569   0.570
 1718SOL    HW1 5195   3.785   2.482   0.597
 1718SOL    HW2 5196   3.798   2.625   0.647
 1719SOL     OW 5197   3.928   2.604   1.562
 1719SOL    HW1 5198   4.025   2.603   1.577
 1719SOL    HW2 5199   3.906   2.696   1.585
 1720SOL     OW 5200   3.976   2.822   1.271
 1720SOL    HW1 5201   4.061   2.775   1.282
 1720SOL    HW2 5202   3.944   2.787   1.188
 1721SOL     OW 5203   4.130   2.152   1.833
 1721SOL    HW1 5204   4.147   2.234   1.882
 1721SOL    HW2 5205   4.093   2.096   1.903
 1722SOL     OW 5206   3.760   2.759   0.767
 1722SOL    HW1 5207   3.842   2.746   0.818
 1722SOL    HW2 5208   3.717   2.830   0.817
 1723SOL     OW 5209   3.842   3.746   1.633
 1723SOL    HW1 5210   3.858   3.733   1.729
 1723SOL    HW2 5211   3.787   3.668   1.613
 1724SOL     OW 5212   0.238   2.189   0.056
 1724SOL    HW1 5213   0.285   2.194  -0.030
 1724SOL    HW2 5214   0.277   2.108   0.095
 1725SOL     OW 5215   4.258   1.970   0.873
 1725SOL    HW1 5216   4.264   2.008   0.962
 1725SOL    HW2 5217   4.279   2.048   0.817
 1726SOL     OW 5218   4.165   3.717   0.908
 1726SOL    HW1 5219   4.246   3.670   0.936
 1726SOL    HW2 5220   4.192   3.810   0.919
 1727SOL     OW 5221   4.198   3.057   1.703
 1727SOL    HW1 5222   4.163   3.092   1.618
 1727SOL    HW2 5223   4.135   3.097   1.767
 1728SOL     OW 5224   3.947   2.124   1.469
 1728SOL    HW1 5225   3.862   2.171   1.458
 1728SOL    HW2 5226   3.920   2.053   1.530
 1729SOL     OW 5227   4.030   3.643   1.211
 1729SOL    HW1 5228   4.068   3.557   1.237
 1729SOL    HW2 5229   3.994   3.625   1.123
 1730SOL     OW 5230   4.061   2.639   0.447
 1730SOL    HW1 5231   4.107   2.553   0.457
 1730SOL    HW2 5232   3.978   2.620   0.494
 1731SOL     OW 5233   4.356   1.938   0.097
 1731SOL    HW1 5234   4.405   1.856   0.076
 1731SOL    HW2 5235   4.348   1.979   0.009
 1732SOL     OW 5236   4.244   2.097   0.484
 1732SOL    HW1 5237   4.185   2.044   0.429
 1732SOL    HW2 5238   4.330   2.085   0.438
 1733SOL     OW 5239   4.233   3.021   0.702
 1733SOL    HW1 5240   4.155   3.020   0.762
 1733SOL    HW2 5241   4.190   2.990   0.619
 1734SOL     OW 5242   3.864   2.453   1.340
 1734SOL    HW1 5243   3.958   2.431   1.326
 1734SOL    HW2 5244   3.870   2.513   1.417
 1735SOL     OW 5245   4.292   2.054   1.129
 1735SOL    HW1 5246   4.324   1.989   1.193
 1735SOL    HW2 5247   4.200   2.069   1.158
 1736SOL     OW 5248   4.208   2.670   1.279
 1736SOL    HW1 5249   4.290   2.666   1.329
 1736SOL    HW2 5250   4.173   2.579   1.293
 1737SOL     OW 5251   3.839   3.431   1.348
 1737SOL    HW1 5252   3.813   3.515   1.305
 1737SOL    HW2 5253   3.935   3.428   1.333
 1738SOL     OW 5254   4.110   2.914   0.489
 1738SOL    HW1 5255   4.065   2.954   0.413
 1738SOL    HW2 5256   4.095   2.819   0.476
 1739SOL     OW 5257   4.240   2.440   0.858
 1739SOL    HW1 5258   4.302   2.497   0.809
 1739SOL    HW2 5259   4.285   2.436   0.945
 1740SOL     OW 5260   4.105   3.386   1.280
 1740SOL    HW1 5261   4.095   3.341   1.194
 1740SOL    HW2 5262   4.202   3.384   1.295
 1741SOL     OW 5263   4.193   2.576   1.620
 1741SOL    HW1 5264   4.285   2.602   1.602
 1741SOL    HW2 5265   4.196   2.480   1.625
 1742SOL     OW 5266   4.205   1.959   1.635
 1742SOL    HW1 5267   4.133   1.899   1.610
 1742SOL    HW2 5268   4.166   2.012   1.706
 1743SOL     OW 5269   4.219   2.776   1.027
 1743SOL    HW1 5270   4.285   2.847   1.029
 1743SOL    HW2 5271   4.225   2.738   1.116
 1744SOL     OW 5272   4.033   2.058   1.211
 1744SOL    HW1 5273   4.005   2.089   1.299
 1744SOL    HW2 5274   4.025   1.961   1.221
 1745SOL     OW 5275   3.748   3.192   1.264
 1745SOL    HW1 5276   3.787   3.129   1.328
 1745SOL    HW2 5277   3.777   3.277   1.302
 1746SOL     OW 5278   3.914   1.911   0.584
 1746SOL    HW1 5279   3.923   2.006   0.607
 1746SOL    HW2 5280   3.955   1.870   0.663
 1747SOL     OW 5281   4.119   2.820   1.823
 1747SOL    HW1 5282   4.171   2.894   1.787
 1747SOL    HW2 5283   4.174   2.744   1.801
 1748SOL     OW 5284   3.981   2.732   0.921
 1748SOL    HW1 5285   4.072   2.746   0.955
 1748SOL    HW2 5286   3.975   2.634   0.929
 1749SOL     OW 5287   3.980   2.458   0.948
 1749SOL    HW1 5288   3.963   2.363   0.958
 1749SOL    HW2 5289   4.071   2.456   0.912
 1750SOL     OW 5290   3.885   3.616   0.967
 1750SOL    HW1 5291   3.848   3.543   0.914
 1750SOL    HW2 5292   3.967   3.638   0.920
 1751SOL     OW 5293   3.747   2.524   1.106
 1751SOL    HW1 5294   3.820   2.505   1.044
 1751SOL    HW2 5295   3.788   2.501   1.191
 1752SOL     OW 5296   3.904   2.399   1.746
 1752SOL    HW1 5297   3.985   2.357   1.714
 1752SOL    HW2 5298   3.892   2.469   1.679
 1753SOL     OW 5299   0.256   2.391   0.255
 1753SOL    HW1 5300   0.224   2.309   0.214
 1753SOL    HW2 5301   0.211   2.392   0.342
 1754SOL     OW 5302   3.956   3.401   1.735
 1754SOL    HW1 5303   3.913   3.415   1.822
 1754SOL    HW2 5304   3.996   3.314   1.750
 1755SOL     OW 5305   4.139   2.281   0.199
 1755SOL    HW1 5306   4.210   2.294   0.133
 1755SOL    HW2 5307   4.061   2.314   0.151
 1756SOL     OW 5308   3.888   3.016   1.435
 1756SOL    HW1 5309   3.885   2.966   1.518
 1756SOL    HW2 5310   3.919   2.947   1.372
 1757SOL     OW 5311   3.822   3.122   1.014
 1757SOL    HW1 5312   3.789   3.143   1.103
 1757SOL    HW2 5313   3.749   3.067   0.979
 1758SOL     OW 5314   3.908   3.680   1.883
 1758SOL    HW1 5315   3.889   3.591   1.916
 1758SOL    HW2 5316   3.968   3.715   1.950
 1759SOL     OW 5317   3.937   2.167   0.684
 1759SOL    HW1 5318   3.862   2.228   0.673
 1759SOL    HW2 5319   3.958   2.177   0.778
 1760SOL     OW 5320   4.098   3.186   1.487
 1760SOL    HW1 5321   4.090   3.260   1.425
 1760SOL    HW2 5322   4.021   3.131   1.464
 1761SOL     OW 5323   4.256   3.445   0.432
 1761SOL    HW1 5324   4.271   3.351   0.410
 1761SOL    HW2 5325   4.346   3.480   0.443
 1762SOL     OW 5326   3.895   2.861   1.672
 1762SOL    HW1 5327   3.831   2.874   1.743
 1762SOL    HW2 5328   3.978   2.849   1.723
 1763SOL     OW 5329   4.093   3.625   1.629
 1763SOL    HW1 5330   4.009   3.669   1.613
 1763SOL    HW2 5331   4.063   3.539   1.665
 1764SOL     OW 5332   4.025   3.167   1.874
 1764SOL    HW1 5333   3.940   3.138   1.911
 1764SOL    HW2 5334   4.074   3.189   1.955
 1765SOL     OW 5335   3.853   3.136   0.660
 1765SOL    HW1 5336   3.915   3.091   0.719
 1765SOL    HW2 5337   3.836   3.066   0.593
 1766SOL     OW 5338   4.388   3.244   1.644
 1766SOL    HW1 5339   4.333   3.171   1.677
 1766SOL    HW2 5340   4.343   3.265   1.561
 1767SOL     OW 5341   4.153   2.379   0.461
 1767SOL    HW1 5342   4.153   2.343   0.370
 1767SOL    HW2 5343   4.118   2.304   0.511
 1768SOL     OW 5344   4.134   2.408   1.332
 1768SOL    HW1 5345   4.147   2.370   1.421
 1768SOL    HW2 5346   4.202   2.363   1.280
 1769SOL     OW 5347   3.792   2.957   0.467
 1769SOL    HW1 5348   3.852   2.991   0.399
 1769SOL    HW2 5349   3.770   2.869   0.431
 1770SOL     OW 5350   3.913   2.522   1.992
 1770SOL    HW1 5351   3.832   2.487   2.034
 1770SOL    HW2 5352   3.904   2.487   1.901
 1771SOL     OW 5353   3.944   2.185   2.863
 1771SOL    HW1 5354   3.978   2.137   2.940
 1771SOL    HW2 5355   3.856   2.144   2.854
 1772SOL     OW 5356   3.690   2.279   2.505
 1772SOL    HW1 5357   3.602   2.291   2.545
 1772SOL    HW2 5358   3.668   2.212   2.437
 1773SOL     OW 5359   4.446   2.854   2.488
 1773SOL    HW1 5360   4.504   2.894   2.555
 1773SOL    HW2 5361   4.365   2.908   2.496
 1774SOL     OW 5362   3.943   3.121   2.898
 1774SOL    HW1 5363   3.852   3.151   2.883
 1774SOL    HW2 5364   3.961   3.155   2.986
 1775SOL     OW 5365   3.879   3.604   2.349
 1775SOL    HW1 5366   3.897   3.670   2.418
 1775SOL    HW2 5367   3.968   3.586   2.316
 1776SOL     OW 5368   3.950   3.320   2.359
 1776SOL    HW1 5369   3.899   3.395   2.390
 1776SOL    HW2 5370   3.924   3.249   2.420
 1777SOL     OW 5371   4.046   2.978   2.695
 1777SOL    HW1 5372   4.037   2.886   2.725
 1777SOL    HW2 5373   4.013   3.028   2.773
 1778SOL     OW 5374   3.815   2.510   2.415
 1778SOL    HW1 5375   3.775   2.426   2.443
 1778SOL    HW2 5376   3.807   2.565   2.495
 1779SOL     OW 5377   3.831   3.427   1.978
 1779SOL    HW1 5378   3.807   3.337   2.003
 1779SOL    HW2 5379   3.773   3.480   2.037
 1780SOL     OW 5380   4.253   2.597   2.117
 1780SOL    HW1 5381   4.293   2.679   2.147
 1780SOL    HW2 5382   4.192   2.575   2.190
 1781SOL     OW 5383   3.786   2.663   2.641
 1781SOL    HW1 5384   3.875   2.693   2.668
 1781SOL    HW2 5385   3.756   2.617   2.720
 1782SOL     OW 5386   4.611   2.078   2.139
 1782SOL    HW1 5387   4.708   2.083   2.141
 1782SOL    HW2 5388   4.597   2.001   2.079
 1783SOL     OW 5389   4.300   1.984   2.768
 1783SOL    HW1 5390   4.266   2.074   2.759
 1783SOL    HW2 5391   4.302   1.955   2.674
 1784SOL     OW 5392   4.038   3.762   2.814
 1784SOL    HW1 5393   4.061   3.740   2.906
 1784SOL    HW2 5394   4.118   3.807   2.783
 1785SOL     OW 5395   3.987   2.783   2.070
 1785SOL    HW1 5396   4.042   2.802   1.992
 1785SOL    HW2 5397   3.974   2.687   2.059
 1786SOL     OW 5398   4.078   2.515   2.311
 1786SOL    HW1 5399   4.095   2.421   2.330
 1786SOL    HW2 5400   3.986   2.525   2.340
 1787SOL     OW 5401   4.313   1.901   2.065
 1787SOL    HW1 5402   4.321   1.849   1.984
 1787SOL    HW2 5403   4.217   1.923   2.066
 1788SOL     OW 5404   4.281   1.910   2.517
 1788SOL    HW1 5405   4.190   1.899   2.485
 1788SOL    HW2 5406   4.329   1.932   2.435
 1789SOL     OW 5407   4.232   3.013   2.497
 1789SOL    HW1 5408   4.171   3.010   2.574
 1789SOL    HW2 5409   4.172   2.988   2.425
 1790SOL     OW 5410   4.046   2.947   2.304
 1790SOL    HW1 5411   4.058   3.021   2.241
 1790SOL    HW2 5412   4.034   2.872   2.243
 1791SOL     OW 5413   4.236   2.526   2.749
 1791SOL    HW1 5414   4.307   2.544   2.684
 1791SOL    HW2 5415   4.288   2.499   2.828
 1792SOL     OW 5416   3.998   1.912   2.528
 1792SOL    HW1 5417   3.969   2.005   2.539
 1792SOL    HW2 5418   4.003   1.882   2.620
 1793SOL     OW 5419   4.028   2.710   2.764
 1793SOL    HW1 5420   4.109   2.664   2.733
 1793SOL    HW2 5421   4.002   2.650   2.836
 1794SOL     OW 5422   4.007   2.453   2.885
 1794SOL    HW1 5423   3.978   2.361   2.878
 1794SOL    HW2 5424   4.083   2.455   2.824
 1795SOL     OW 5425   3.810   3.119   2.046
 1795SOL    HW1 5426   3.721   3.152   2.019
 1795SOL    HW2 5427   3.786   3.034   2.087
 1796SOL     OW 5428   3.774   3.639   2.786
 1796SOL    HW1 5429   3.770   3.554   2.737
 1796SOL    HW2 5430   3.869   3.655   2.793
 1797SOL     OW 5431   4.568   2.355   2.124
 1797SOL    HW1 5432   4.559   2.259   2.132
 1797SOL    HW2 5433   4.533   2.387   2.209
 1798SOL     OW 5434   4.163   2.395   1.954
 1798SOL    HW1 5435   4.220   2.456   2.005
 1798SOL    HW2 5436   4.076   2.431   1.977
 1799SOL     OW 5437   3.681   3.204   2.869
 1799SOL    HW1 5438   3.636   3.239   2.946
 1799SOL    HW2 5439   3.623   3.130   2.842
 1800SOL     OW 5440   3.930   2.171   2.581
 1800SOL    HW1 5441   3.843   2.211   2.561
 1800SOL    HW2 5442   3.938   2.187   2.677
 1801SOL     OW 5443   4.315   3.525   2.206
 1801SOL    HW1 5444   4.400   3.541   2.251
 1801SOL    HW2 5445   4.253   3.581   2.255
 1802SOL     OW 5446   4.056   3.177   2.155
 1802SOL    HW1 5447   3.966   3.162   2.122
 1802SOL    HW2 5448   4.038   3.242   2.227
 1803SOL     OW 5449   2.167   4.288   0.257
 1803SOL    HW1 5450   2.202   4.375   0.229
 1803SOL    HW2 5451   2.159   4.299   0.353
 1804SOL     OW 5452   3.737   2.226   1.883
 1804SOL    HW1 5453   3.696   2.182   1.806
 1804SOL    HW2 5454   3.805   2.281   1.838
 1805SOL     OW 5455   3.723   2.037   2.089
 1805SOL    HW1 5456   3.716   2.102   2.017
 1805SOL    HW2 5457   3.821   2.021   2.088
 1806SOL     OW 5458   3.890   3.085   2.492
 1806SOL    HW1 5459   3.936   3.054   2.572
 1806SOL    HW2 5460   3.929   3.027   2.425
 1807SOL     OW 5461   4.095   2.243   2.370
 1807SOL    HW1 5462   4.069   2.186   2.296
 1807SOL    HW2 5463   4.034   2.216   2.441
 1808SOL     OW 5464   3.744   2.872   2.150
 1808SOL    HW1 5465   3.833   2.844   2.122
 1808SOL    HW2 5466   3.705   2.786   2.174
 1809SOL     OW 5467   3.953   3.973   0.994
 1809SOL    HW1 5468   3.983   3.940   1.081
 1809SOL    HW2 5469   3.866   3.929   0.985
 1810SOL     OW 5470   3.701   4.032   0.673
 1810SOL    HW1 5471   3.618   4.060   0.717
 1810SOL    HW2 5472   3.664   3.977   0.600
 1811SOL     OW 5473   4.115   4.125   1.511
 1811SOL    HW1 5474   4.186   4.061   1.523
 1811SOL    HW2 5475   4.036   4.067   1.510
 1812SOL     OW 5476   3.837   4.248   0.588
 1812SOL    HW1 5477   3.793   4.165   0.617
 1812SOL    HW2 5478   3.799   4.311   0.652
 1813SOL     OW 5479   4.036   3.998   1.784
 1813SOL    HW1 5480   4.010   4.087   1.755
 1813SOL    HW2 5481   3.954   3.966   1.824
 1814SOL     OW 5482   3.746   0.109   0.761
 1814SOL    HW1 5483   3.816   0.174   0.744
 1814SOL    HW2 5484   3.676   0.138   0.699
 1815SOL     OW 5485   0.269   4.008   0.172
 1815SOL    HW1 5486   0.261   4.083   0.234
 1815SOL    HW2 5487   0.176   4.001   0.140
 1816SOL     OW 5488   4.279   3.969   0.947
 1816SOL    HW1 5489   4.274   3.972   1.045
 1816SOL    HW2 5490   4.255   4.060   0.923
 1817SOL     OW 5491   3.898   3.964   1.492
 1817SOL    HW1 5492   3.809   4.002   1.495
 1817SOL    HW2 5493   3.884   3.883   1.546
 1818SOL     OW 5494   4.345   3.790   0.544
 1818SOL    HW1 5495   4.258   3.765   0.579
 1818SOL    HW2 5496   4.323   3.808   0.450
 1819SOL     OW 5497   3.808   4.317   1.472
 1819SOL    HW1 5498   3.889   4.312   1.418
 1819SOL    HW2 5499   3.756   4.382   1.422
 1820SOL     OW 5500   4.279   3.957   1.214
 1820SOL    HW1 5501   4.320   3.882   1.258
 1820SOL    HW2 5502   4.184   3.944   1.234
 1821SOL     OW 5503   4.246   4.247   0.942
 1821SOL    HW1 5504   4.279   4.311   0.876
 1821SOL    HW2 5505   4.303   4.268   1.018
 1822SOL     OW 5506   4.238   3.825   1.742
 1822SOL    HW1 5507   4.191   3.748   1.703
 1822SOL    HW2 5508   4.163   3.888   1.753
 1823SOL     OW 5509   4.018   3.905   1.253
 1823SOL    HW1 5510   3.968   3.921   1.335
 1823SOL    HW2 5511   4.018   3.807   1.248
 1824SOL     OW 5512   4.095   3.737   0.647
 1824SOL    HW1 5513   4.043   3.820   0.658
 1824SOL    HW2 5514   4.122   3.720   0.740
 1825SOL     OW 5515   4.006   4.223   1.066
 1825SOL    HW1 5516   3.988   4.134   1.029
 1825SOL    HW2 5517   4.086   4.246   1.015
 1826SOL     OW 5518   3.755   4.190   1.186
 1826SOL    HW1 5519   3.838   4.214   1.139
 1826SOL    HW2 5520   3.761   4.094   1.190
 1827SOL     OW 5521   3.885   4.243   1.730
 1827SOL    HW1 5522   3.849   4.260   1.641
 1827SOL    HW2 5523   3.912   4.332   1.757
 1828SOL     OW 5524   0.259   4.227   0.338
 1828SOL    HW1 5525   0.335   4.198   0.393
 1828SOL    HW2 5526   0.195   4.249   0.408
 1829SOL     OW 5527   4.195   4.232   0.146
 1829SOL    HW1 5528   4.247   4.295   0.092
 1829SOL    HW2 5529   4.193   4.279   0.232
 1830SOL     OW 5530   3.959   3.962   0.718
 1830SOL    HW1 5531   3.865   3.984   0.706
 1830SOL    HW2 5532   3.971   3.974   0.814
 1831SOL     OW 5533   3.688   4.107   0.063
 1831SOL    HW1 5534   3.689   4.045  -0.011
 1831SOL    HW2 5535   3.780   4.138   0.067
 1832SOL     OW 5536   4.110   4.073   0.514
 1832SOL    HW1 5537   4.046   4.082   0.443
 1832SOL    HW2 5538   4.054   4.041   0.588
 1833SOL     OW 5539   4.036   4.305   1.322
 1833SOL    HW1 5540   4.080   4.238   1.378
 1833SOL    HW2 5541   4.034   4.261   1.234
 1834SOL     OW 5542   3.903   4.004   2.821
 1834SOL    HW1 5543   3.955   3.922   2.827
 1834SOL    HW2 5544   3.815   3.972   2.848
 1835SOL     OW 5545   3.675   4.088   2.480
 1835SOL    HW1 5546   3.586   4.095   2.516
 1835SOL    HW2 5547   3.663   4.018   2.413
 1836SOL     OW 5548   3.749   0.014   2.436
 1836SOL    HW1 5549   3.716  -0.077   2.439
 1836SOL    HW2 5550   3.752   0.036   2.531
 1837SOL     OW 5551   3.795   0.073   2.698
 1837SOL    HW1 5552   3.851   0.021   2.758
 1837SOL    HW2 5553   3.853   0.147   2.674
 1838SOL     OW 5554   4.697   4.174   1.913
 1838SOL    HW1 5555   4.711   4.259   1.960
 1838SOL    HW2 5556   4.600   4.164   1.922
 1839SOL     OW 5557   4.228   3.946   2.721
 1839SOL    HW1 5558   4.279   3.917   2.799
 1839SOL    HW2 5559   4.214   4.041   2.739
 1840SOL     OW 5560   4.330   3.879   1.994
 1840SOL    HW1 5561   4.417   3.835   2.004
 1840SOL    HW2 5562   4.301   3.847   1.906
 1841SOL     OW 5563   4.157   3.719   2.322
 1841SOL    HW1 5564   4.106   3.745   2.402
 1841SOL    HW2 5565   4.229   3.785   2.323
 1842SOL     OW 5566   4.059   3.797   2.078
 1842SOL    HW1 5567   4.140   3.838   2.044
 1842SOL    HW2 5568   4.089   3.760   2.163
 1843SOL     OW 5569   4.331   3.823   2.941
 1843SOL    HW1 5570   4.375   3.738   2.923
 1843SOL    HW2 5571   4.262   3.796   3.005
 1844SOL     OW 5572   4.206   4.214   2.755
 1844SOL    HW1 5573   4.187   4.286   2.693
 1844SOL    HW2 5574   4.260   4.259   2.823
 1845SOL     OW 5575   3.993   3.790   2.527
 1845SOL    HW1 5576   3.977   3.886   2.527
 1845SOL    HW2 5577   4.003   3.771   2.622
 1846SOL     OW 5578   3.963   4.264   2.862
 1846SOL    HW1 5579   3.922   4.175   2.867
 1846SOL    HW2 5580   4.049   4.240   2.822
 1847SOL     OW 5581   4.541   0.017   2.256
 1847SOL    HW1 5582   4.586  -0.070   2.249
 1847SOL    HW2 5583   4.515   0.015   2.350
 1848SOL     OW 5584   3.934   4.059   2.551
 1848SOL    HW1 5585   3.840   4.070   2.528
 1848SOL    HW2 5586   3.930   4.055   2.649
 1849SOL     OW 5587   3.770   4.035   1.879
 1849SOL    HW1 5588   3.686   4.037   1.831
 1849SOL    HW2 5589   3.812   4.115   1.843
 1850SOL     OW 5590   3.786   3.858   2.094
 1850SOL    HW1 5591   3.773   3.919   2.018
 1850SOL    HW2 5592   3.883   3.845   2.091
 1851SOL     OW 5593   4.019   4.285   2.400
 1851SOL    HW1 5594   3.926   4.310   2.386
 1851SOL    HW2 5595   4.010   4.196   2.436
 1852NaJ    NaJ 5596   1.445   0.903   1.158
 1853NaJ    NaJ 5597   1.753   0.196   1.675
 1854NaJ    NaJ 5598   1.460   4.210   0.751
 1855NaJ    NaJ 5599   3.753   0.382   1.396
 1856NaJ    NaJ 5600   3.767   1.822   0.423
 1857ClJ    ClJ 5601   0.404   0.459   0.063
 1858ClJ    ClJ 5602   1.024   3.348   1.331
 1859ClJ    ClJ 5603   4.870   3.767   2.870
 1860ClJ    ClJ 5604   2.348   4.166   2.706
 1861ClJ    ClJ 5605   4.018   1.974   2.072
   4.33090   4.33090   3.06241   0.00000   0.00000   0.00000   0.00000   2.16545   2.16545
