#include "amber99sb-star-ildn-mut.ff/forcefield.itp"
#include "/home2/shbae/devel/osbfe/pmx/tutorial/workpath/edge_18625-1_18626-1/hybridStrTop/ffmerged.itp"
#include "/home2/shbae/devel/osbfe/pmx/tutorial/workpath/edge_18625-1_18626-1/hybridStrTop/merged.itp"
#include "/home2/shbae/devel/osbfe/pmx/tutorial/input/protein_amber/topol_Protein_chain_A.itp"
#include "/home2/shbae/devel/osbfe/pmx/tutorial/input/protein_amber/topol_Protein_chain_F.itp"
#include "amber99sb-star-ildn-mut.ff/tip3p.itp"
#include "amber99sb-star-ildn-mut.ff/ions.itp"

[ system ]
protein and ligand in water

[ molecules ]
Protein_chain_A 1
Protein_chain_F 1
MOL 1
SOL         21786
NaJ              66
ClJ              71
