ligand in water
 5605
    1LIG      C    1   3.384   3.761   1.423
    1LIG     C1    2   3.324   3.620   1.435
    1LIG      O    3   3.203   3.630   1.513
    1LIG     C2    4   3.130   3.518   1.548
    1LIG      N    5   3.169   3.398   1.501
    1LIG     C3    6   3.104   3.289   1.539
    1LIG     C4    7   2.994   3.296   1.625
    1LIG     C5    8   2.950   3.419   1.670
    1LIG     N1    9   2.839   3.424   1.750
    1LIG     C6   10   3.019   3.534   1.632
    1LIG     C7   11   2.978   3.664   1.678
    1LIG     N2   12   2.942   3.766   1.717
    1LIG     N3   13   3.148   3.166   1.494
    1LIG     C8   14   3.071   3.064   1.445
    1LIG     O1   15   2.950   3.069   1.444
    1LIG     C9   16   3.145   2.944   1.386
    1LIG    C10   17   3.285   2.919   1.442
    1LIG    C11   18   3.302   2.842   1.558
    1LIG     CL   19   3.162   2.778   1.642
    1LIG    C12   20   3.431   2.814   1.606
    1LIG    C13   21   3.543   2.863   1.538
    1LIG    C14   22   3.527   2.941   1.423
    1LIG    C15   23   3.398   2.969   1.375
    1LIG      H   24   3.473   3.760   1.359
    1LIG     H1   25   3.311   3.831   1.379
    1LIG     H2   26   3.413   3.799   1.521
    1LIG     H3   27   3.302   3.581   1.335
    1LIG     H4   28   3.396   3.554   1.484
    1LIG     H5   29   2.944   3.205   1.656
    1LIG     H6   30   2.797   3.514   1.768
    1LIG     H7   31   2.782   3.341   1.759
    1LIG     H8   32   3.248   3.157   1.484
    1LIG     H9   33   3.082   2.856   1.400
    1LIG    H10   34   3.151   2.961   1.277
    1LIG    H11   35   3.444   2.753   1.695
    1LIG    H12   36   3.643   2.839   1.574
    1LIG    H13   37   3.614   2.977   1.369
    1LIG    H14   38   3.387   3.027   1.283
    1LIG    EP1   39   3.007   2.707   1.735
    1LIG    DCL   40   3.453   2.716   1.750
    1LIG    HV6   41   2.777   3.344   1.743
    1LIG    HV7   42   2.790   3.513   1.751
    1LIG    HV8   43   3.248   3.153   1.501
    1LIG   HV11   44   3.216   2.802   1.611
    1LIG   DEP1   45   3.477   2.608   1.910
    2SOL     OW   46   0.108   0.563   0.018
    2SOL    HW1   47   0.092   0.566   0.114
    2SOL    HW2   48   0.204   0.545   0.016
    3SOL     OW   49   4.542   0.272   0.990
    3SOL    HW1   50   4.597   0.240   1.065
    3SOL    HW2   51   4.454   0.275   1.033
    4SOL     OW   52   4.364   0.355   0.652
    4SOL    HW1   53   4.277   0.398   0.643
    4SOL    HW2   54   4.369   0.302   0.570
    5SOL     OW   55   4.904   1.299   1.257
    5SOL    HW1   56   4.828   1.305   1.197
    5SOL    HW2   57   4.911   1.391   1.287
    6SOL     OW   58   1.601   1.610   0.688
    6SOL    HW1   59   1.557   1.568   0.765
    6SOL    HW2   60   1.532   1.595   0.620
    7SOL     OW   61   1.140   0.719   0.686
    7SOL    HW1   62   1.184   0.806   0.682
    7SOL    HW2   63   1.081   0.730   0.762
    8SOL     OW   64   1.830   0.585   0.210
    8SOL    HW1   65   1.867   0.516   0.152
    8SOL    HW2   66   1.750   0.540   0.244
    9SOL     OW   67   5.070   1.128   1.127
    9SOL    HW1   68   5.004   1.179   1.178
    9SOL    HW2   69   5.109   1.202   1.075
   10SOL     OW   70   5.246   0.708   1.780
   10SOL    HW1   71   5.268   0.771   1.851
   10SOL    HW2   72   5.253   0.766   1.702
   11SOL     OW   73   0.694   0.989   0.676
   11SOL    HW1   74   0.758   0.997   0.748
   11SOL    HW2   75   0.624   1.052   0.701
   12SOL     OW   76   5.057   1.153   1.858
   12SOL    HW1   77   5.096   1.231   1.901
   12SOL    HW2   78   4.983   1.191   1.808
   13SOL     OW   79   4.703   1.366   1.084
   13SOL    HW1   80   4.662   1.305   1.021
   13SOL    HW2   81   4.737   1.436   1.026
   14SOL     OW   82   1.470   1.479   1.364
   14SOL    HW1   83   1.519   1.559   1.392
   14SOL    HW2   84   1.391   1.482   1.422
   15SOL     OW   85   4.826   0.390   1.464
   15SOL    HW1   86   4.918   0.357   1.469
   15SOL    HW2   87   4.782   0.331   1.528
   16SOL     OW   88   1.518   0.450   0.648
   16SOL    HW1   89   1.421   0.450   0.651
   16SOL    HW2   90   1.534   0.520   0.582
   17SOL     OW   91   4.553   1.711   0.476
   17SOL    HW1   92   4.572   1.786   0.535
   17SOL    HW2   93   4.619   1.727   0.405
   18SOL     OW   94   5.434   1.347   1.714
   18SOL    HW1   95   5.469   1.336   1.803
   18SOL    HW2   96   5.386   1.263   1.703
   19SOL     OW   97   4.666   1.469   0.517
   19SOL    HW1   98   4.629   1.559   0.512
   19SOL    HW2   99   4.594   1.421   0.562
   20SOL     OW  100   4.614   1.083   0.903
   20SOL    HW1  101   4.622   0.989   0.925
   20SOL    HW2  102   4.530   1.108   0.947
   21SOL     OW  103   4.966   1.750   1.530
   21SOL    HW1  104   4.872   1.762   1.556
   21SOL    HW2  105   4.987   1.838   1.492
   22SOL     OW  106   0.555   0.989   0.260
   22SOL    HW1  107   0.584   1.021   0.174
   22SOL    HW2  108   0.622   1.027   0.320
   23SOL     OW  109   1.581   0.131   1.518
   23SOL    HW1  110   1.534   0.062   1.469
   23SOL    HW2  111   1.508   0.176   1.562
   24SOL     OW  112   4.480   0.583   0.539
   24SOL    HW1  113   4.444   0.504   0.582
   24SOL    HW2  114   4.464   0.650   0.609
   25SOL     OW  115   1.932   1.731   0.242
   25SOL    HW1  116   1.996   1.713   0.314
   25SOL    HW2  117   1.926   1.828   0.246
   26SOL     OW  118   4.325   1.542   0.171
   26SOL    HW1  119   4.350   1.450   0.153
   26SOL    HW2  120   4.317   1.544   0.268
   27SOL     OW  121   1.718   0.943   0.665
   27SOL    HW1  122   1.811   0.932   0.642
   27SOL    HW2  123   1.683   0.990   0.587
   28SOL     OW  124   1.651   1.116   0.445
   28SOL    HW1  125   1.726   1.107   0.384
   28SOL    HW2  126   1.685   1.182   0.508
   29SOL     OW  127   4.547   0.700   1.635
   29SOL    HW1  128   4.644   0.703   1.640
   29SOL    HW2  129   4.523   0.793   1.651
   30SOL     OW  130   0.630   1.371   0.797
   30SOL    HW1  131   0.579   1.290   0.777
   30SOL    HW2  132   0.631   1.414   0.709
   31SOL     OW  133   1.213   1.163   1.466
   31SOL    HW1  134   1.248   1.122   1.385
   31SOL    HW2  135   1.292   1.195   1.512
   32SOL     OW  136   0.863   0.088   0.593
   32SOL    HW1  137   0.895   0.164   0.542
   32SOL    HW2  138   0.775   0.074   0.554
   33SOL     OW  139   4.475   0.873   1.267
   33SOL    HW1  140   4.573   0.875   1.268
   33SOL    HW2  141   4.459   0.788   1.223
   34SOL     OW  142   1.474   1.067   0.231
   34SOL    HW1  143   1.431   0.983   0.251
   34SOL    HW2  144   1.539   1.075   0.303
   35SOL     OW  145   1.280   1.890   1.663
   35SOL    HW1  146   1.234   1.933   1.589
   35SOL    HW2  147   1.270   1.796   1.643
   36SOL     OW  148   4.710   0.212   1.631
   36SOL    HW1  149   4.747   0.123   1.645
   36SOL    HW2  150   4.697   0.243   1.723
   37SOL     OW  151   1.490   1.471   0.893
   37SOL    HW1  152   1.425   1.475   0.966
   37SOL    HW2  153   1.482   1.379   0.863
   38SOL     OW  154   1.636   1.846   0.535
   38SOL    HW1  155   1.645   1.797   0.450
   38SOL    HW2  156   1.635   1.773   0.599
   39SOL     OW  157   0.625   0.743   0.367
   39SOL    HW1  158   0.595   0.823   0.320
   39SOL    HW2  159   0.545   0.716   0.416
   40SOL     OW  160   1.294   0.390   0.927
   40SOL    HW1  161   1.209   0.345   0.942
   40SOL    HW2  162   1.354   0.335   0.981
   41SOL     OW  163   1.659   1.718   0.302
   41SOL    HW1  164   1.750   1.705   0.271
   41SOL    HW2  165   1.606   1.692   0.225
   42SOL     OW  166   5.160   0.615   1.429
   42SOL    HW1  167   5.114   0.572   1.504
   42SOL    HW2  168   5.142   0.554   1.355
   43SOL     OW  169   1.409   0.485   1.667
   43SOL    HW1  170   1.395   0.528   1.753
   43SOL    HW2  171   1.459   0.406   1.693
   44SOL     OW  172   5.291   0.892   1.570
   44SOL    HW1  173   5.346   0.831   1.518
   44SOL    HW2  174   5.237   0.933   1.499
   45SOL     OW  175   1.060   0.415   1.194
   45SOL    HW1  176   0.967   0.440   1.208
   45SOL    HW2  177   1.053   0.367   1.110
   46SOL     OW  178   1.110   0.723   0.413
   46SOL    HW1  179   1.121   0.721   0.510
   46SOL    HW2  180   1.019   0.689   0.404
   47SOL     OW  181   4.447   0.740   0.758
   47SOL    HW1  182   4.522   0.759   0.818
   47SOL    HW2  183   4.426   0.831   0.728
   48SOL     OW  184   4.457   1.870   1.637
   48SOL    HW1  185   4.448   1.818   1.719
   48SOL    HW2  186   4.365   1.904   1.628
   49SOL     OW  187   0.881   0.428   0.211
   49SOL    HW1  188   0.951   0.457   0.150
   49SOL    HW2  189   0.863   0.337   0.177
   50SOL     OW  190   1.666   0.614   1.841
   50SOL    HW1  191   1.631   0.692   1.794
   50SOL    HW2  192   1.690   0.554   1.770
   51SOL     OW  193   1.394   1.167   0.564
   51SOL    HW1  194   1.464   1.155   0.498
   51SOL    HW2  195   1.334   1.230   0.520
   52SOL     OW  196   4.945   0.206   0.953
   52SOL    HW1  197   4.946   0.230   1.048
   52SOL    HW2  198   4.920   0.291   0.912
   53SOL     OW  199   0.992   1.481   0.502
   53SOL    HW1  200   0.973   1.548   0.433
   53SOL    HW2  201   0.949   1.521   0.579
   54SOL     OW  202   4.693   1.810   0.884
   54SOL    HW1  203   4.734   1.723   0.903
   54SOL    HW2  204   4.759   1.872   0.918
   55SOL     OW  205   1.787   1.006   0.927
   55SOL    HW1  206   1.759   0.996   0.834
   55SOL    HW2  207   1.702   1.024   0.972
   56SOL     OW  208   1.234   1.498   1.501
   56SOL    HW1  209   1.197   1.441   1.570
   56SOL    HW2  210   1.155   1.546   1.469
   57SOL     OW  211   0.281   0.988   0.264
   57SOL    HW1  212   0.378   0.979   0.272
   57SOL    HW2  213   0.272   0.995   0.166
   58SOL     OW  214   1.488   0.791   0.689
   58SOL    HW1  215   1.485   0.730   0.765
   58SOL    HW2  216   1.575   0.834   0.698
   59SOL     OW  217   4.838   1.265   1.724
   59SOL    HW1  218   4.789   1.272   1.639
   59SOL    HW2  219   4.764   1.249   1.785
   60SOL     OW  220   1.058   1.807   0.165
   60SOL    HW1  221   0.999   1.757   0.225
   60SOL    HW2  222   1.103   1.736   0.116
   61SOL     OW  223   4.519   0.260   1.446
   61SOL    HW1  224   4.487   0.351   1.457
   61SOL    HW2  225   4.581   0.249   1.521
   62SOL     OW  226   1.612   1.417   0.102
   62SOL    HW1  227   1.568   1.503   0.098
   62SOL    HW2  228   1.540   1.355   0.079
   63SOL     OW  229   0.445   1.755   0.324
   63SOL    HW1  230   0.494   1.806   0.391
   63SOL    HW2  231   0.517   1.706   0.281
   64SOL     OW  232   1.455   0.165   0.432
   64SOL    HW1  233   1.437   0.119   0.349
   64SOL    HW2  234   1.551   0.183   0.425
   65SOL     OW  235   4.532   1.783   1.246
   65SOL    HW1  236   4.575   1.697   1.259
   65SOL    HW2  237   4.494   1.774   1.156
   66SOL     OW  238   0.926   1.725   0.885
   66SOL    HW1  239   1.008   1.672   0.880
   66SOL    HW2  240   0.875   1.684   0.811
   67SOL     OW  241   0.415   0.663   0.521
   67SOL    HW1  242   0.447   0.573   0.541
   67SOL    HW2  243   0.320   0.648   0.510
   68SOL     OW  244   1.530   0.260   1.780
   68SOL    HW1  245   1.533   0.303   1.867
   68SOL    HW2  246   1.491   0.174   1.805
   69SOL     OW  247   0.534   0.105   0.127
   69SOL    HW1  248   0.609   0.049   0.156
   69SOL    HW2  249   0.568   0.145   0.046
   70SOL     OW  250   5.131   0.304   1.737
   70SOL    HW1  251   5.219   0.331   1.767
   70SOL    HW2  252   5.106   0.239   1.805
   71SOL     OW  253   5.183   1.502   1.240
   71SOL    HW1  254   5.161   1.468   1.152
   71SOL    HW2  255   5.240   1.431   1.274
   72SOL     OW  256   1.355   0.598   1.422
   72SOL    HW1  257   1.380   0.563   1.511
   72SOL    HW2  258   1.396   0.686   1.422
   73SOL     OW  259   0.811   1.361   1.003
   73SOL    HW1  260   0.897   1.370   0.958
   73SOL    HW2  261   0.748   1.370   0.928
   74SOL     OW  262   0.961   0.501   0.892
   74SOL    HW1  263   0.928   0.496   0.800
   74SOL    HW2  264   0.978   0.407   0.912
   75SOL     OW  265   0.622   0.075   0.466
   75SOL    HW1  266   0.548   0.052   0.525
   75SOL    HW2  267   0.590   0.158   0.427
   76SOL     OW  268   1.398   1.244   0.042
   76SOL    HW1  269   1.428   1.175   0.106
   76SOL    HW2  270   1.317   1.276   0.087
   77SOL     OW  271   0.271   0.047   0.117
   77SOL    HW1  272   0.365   0.072   0.114
   77SOL    HW2  273   0.268  -0.007   0.199
   78SOL     OW  274   0.948   0.302   0.453
   78SOL    HW1  275   0.919   0.343   0.370
   78SOL    HW2  276   1.045   0.300   0.444
   79SOL     OW  277   1.089   0.710   1.415
   79SOL    HW1  278   1.014   0.649   1.424
   79SOL    HW2  279   1.166   0.651   1.414
   80SOL     OW  280   1.171   1.618   0.837
   80SOL    HW1  281   1.202   1.675   0.764
   80SOL    HW2  282   1.217   1.657   0.914
   81SOL     OW  283   4.810   1.155   0.729
   81SOL    HW1  284   4.744   1.129   0.796
   81SOL    HW2  285   4.755   1.151   0.648
   82SOL     OW  286   1.240   1.809   0.654
   82SOL    HW1  287   1.292   1.865   0.594
   82SOL    HW2  288   1.167   1.869   0.679
   83SOL     OW  289   1.087   0.471   0.042
   83SOL    HW1  290   1.048   0.496  -0.045
   83SOL    HW2  291   1.176   0.510   0.034
   84SOL     OW  292   4.463   0.537   1.432
   84SOL    HW1  293   4.549   0.545   1.386
   84SOL    HW2  294   4.478   0.596   1.508
   85SOL     OW  295   4.943   0.267   1.216
   85SOL    HW1  296   4.976   0.248   1.305
   85SOL    HW2  297   4.846   0.256   1.227
   86SOL     OW  298   0.879   0.488   0.641
   86SOL    HW1  299   0.861   0.554   0.572
   86SOL    HW2  300   0.894   0.409   0.587
   87SOL     OW  301   1.015   0.019   0.800
   87SOL    HW1  302   0.966   0.043   0.718
   87SOL    HW2  303   0.941  -0.010   0.856
   88SOL     OW  304   1.533   1.214   0.799
   88SOL    HW1  305   1.473   1.193   0.725
   88SOL    HW2  306   1.615   1.232   0.751
   89SOL     OW  307   1.443   0.626   0.907
   89SOL    HW1  308   1.395   0.542   0.914
   89SOL    HW2  309   1.495   0.629   0.989
   90SOL     OW  310   1.873   0.822   0.350
   90SOL    HW1  311   1.913   0.781   0.430
   90SOL    HW2  312   1.845   0.743   0.301
   91SOL     OW  313   0.540   1.421   0.131
   91SOL    HW1  314   0.502   1.361   0.197
   91SOL    HW2  315   0.461   1.441   0.078
   92SOL     OW  316   1.765   1.268   0.643
   92SOL    HW1  317   1.842   1.209   0.655
   92SOL    HW2  318   1.808   1.351   0.619
   93SOL     OW  319   1.363   0.535   0.049
   93SOL    HW1  320   1.337   0.535   0.143
   93SOL    HW2  321   1.431   0.465   0.047
   94SOL     OW  322   0.514   0.295   0.328
   94SOL    HW1  323   0.516   0.228   0.257
   94SOL    HW2  324   0.491   0.373   0.276
   95SOL     OW  325   1.714   1.240   1.565
   95SOL    HW1  326   1.807   1.213   1.556
   95SOL    HW2  327   1.726   1.335   1.585
   96SOL     OW  328   1.007   1.301   1.345
   96SOL    HW1  329   0.925   1.279   1.394
   96SOL    HW2  330   1.075   1.260   1.402
   97SOL     OW  331   1.598   1.624   1.688
   97SOL    HW1  332   1.585   1.662   1.600
   97SOL    HW2  333   1.680   1.572   1.674
   98SOL     OW  334   1.168   1.280   1.129
   98SOL    HW1  335   1.101   1.295   1.199
   98SOL    HW2  336   1.122   1.309   1.048
   99SOL     OW  337   1.546   1.084   1.044
   99SOL    HW1  338   1.563   1.161   1.102
   99SOL    HW2  339   1.526   1.127   0.959
  100SOL     OW  340   5.287   0.126   1.394
  100SOL    HW1  341   5.290   0.096   1.301
  100SOL    HW2  342   5.381   0.147   1.410
  101SOL     OW  343   5.305   1.102   1.746
  101SOL    HW1  344   5.214   1.117   1.777
  101SOL    HW2  345   5.294   1.032   1.679
  102SOL     OW  346   0.755   1.074   0.422
  102SOL    HW1  347   0.740   1.031   0.509
  102SOL    HW2  348   0.838   1.030   0.392
  103SOL     OW  349   4.747   0.822   1.275
  103SOL    HW1  350   4.819   0.831   1.340
  103SOL    HW2  351   4.727   0.726   1.283
  104SOL     OW  352   1.310   0.372   1.278
  104SOL    HW1  353   1.330   0.455   1.327
  104SOL    HW2  354   1.219   0.391   1.246
  105SOL     OW  355   4.379   1.522   1.370
  105SOL    HW1  356   4.368   1.598   1.428
  105SOL    HW2  357   4.474   1.528   1.347
  106SOL     OW  358   4.639   1.139   0.511
  106SOL    HW1  359   4.671   1.186   0.432
  106SOL    HW2  360   4.613   1.054   0.472
  107SOL     OW  361   4.871   0.453   0.862
  107SOL    HW1  362   4.874   0.460   0.765
  107SOL    HW2  363   4.934   0.522   0.891
  108SOL     OW  364   1.237   1.365   0.452
  108SOL    HW1  365   1.290   1.439   0.487
  108SOL    HW2  366   1.147   1.393   0.477
  109SOL     OW  367   1.345   1.486   1.123
  109SOL    HW1  368   1.390   1.483   1.210
  109SOL    HW2  369   1.284   1.411   1.130
  110SOL     OW  370   1.504   0.652   0.453
  110SOL    HW1  371   1.494   0.712   0.529
  110SOL    HW2  372   1.456   0.701   0.384
  111SOL     OW  373   4.648   1.524   1.299
  111SOL    HW1  374   4.658   1.467   1.220
  111SOL    HW2  375   4.740   1.549   1.317
  112SOL     OW  376   4.819   0.717   1.645
  112SOL    HW1  377   4.863   0.761   1.570
  112SOL    HW2  378   4.883   0.646   1.664
  113SOL     OW  379   1.582   0.831   1.700
  113SOL    HW1  380   1.492   0.863   1.685
  113SOL    HW2  381   1.632   0.875   1.629
  114SOL     OW  382   5.307   4.303   1.622
  114SOL    HW1  383   5.288   4.357   1.544
  114SOL    HW2  384   5.221   4.301   1.667
  115SOL     OW  385   4.802   4.286   1.674
  115SOL    HW1  386   4.802   4.220   1.603
  115SOL    HW2  387   4.760   4.239   1.748
  116SOL     OW  388   4.978   0.867   1.104
  116SOL    HW1  389   4.995   0.963   1.105
  116SOL    HW2  390   4.890   0.862   1.145
  117SOL     OW  391   1.282   0.817   1.011
  117SOL    HW1  392   1.191   0.809   0.979
  117SOL    HW2  393   1.328   0.751   0.957
  118SOL     OW  394   1.265   0.531   0.294
  118SOL    HW1  395   1.255   0.457   0.356
  118SOL    HW2  396   1.209   0.600   0.334
  119SOL     OW  397   4.673   0.211   1.225
  119SOL    HW1  398   4.614   0.239   1.298
  119SOL    HW2  399   4.695   0.120   1.252
  120SOL     OW  400   4.383   1.275   1.251
  120SOL    HW1  401   4.414   1.216   1.322
  120SOL    HW2  402   4.375   1.360   1.297
  121SOL     OW  403   0.706   0.626   0.995
  121SOL    HW1  404   0.782   0.641   0.938
  121SOL    HW2  405   0.683   0.716   1.026
  122SOL     OW  406   1.752   0.983   1.866
  122SOL    HW1  407   1.691   0.921   1.824
  122SOL    HW2  408   1.697   1.020   1.937
  123SOL     OW  409   4.735   0.065   0.635
  123SOL    HW1  410   4.695   0.149   0.665
  123SOL    HW2  411   4.657   0.014   0.609
  124SOL     OW  412   1.619   0.442   0.317
  124SOL    HW1  413   1.646   0.382   0.388
  124SOL    HW2  414   1.572   0.513   0.365
  125SOL     OW  415   1.018   0.757   0.938
  125SOL    HW1  416   1.001   0.773   1.034
  125SOL    HW2  417   1.002   0.660   0.931
  126SOL     OW  418   5.339   1.605   1.704
  126SOL    HW1  419   5.332   1.625   1.608
  126SOL    HW2  420   5.351   1.508   1.703
  127SOL     OW  421   1.823   1.492   1.591
  127SOL    HW1  422   1.843   1.520   1.500
  127SOL    HW2  423   1.907   1.512   1.635
  128SOL     OW  424   4.739   0.921   1.811
  128SOL    HW1  425   4.806   0.939   1.879
  128SOL    HW2  426   4.777   0.846   1.762
  129SOL     OW  427   1.529   0.308   0.096
  129SOL    HW1  428   1.581   0.226   0.106
  129SOL    HW2  429   1.563   0.360   0.172
  130SOL     OW  430   1.291   0.791   0.001
  130SOL    HW1  431   1.322   0.698   0.010
  130SOL    HW2  432   1.311   0.809  -0.093
  131SOL     OW  433   1.058   1.374   0.900
  131SOL    HW1  434   1.075   1.300   0.838
  131SOL    HW2  435   1.106   1.449   0.859
  132SOL     OW  436   4.657   0.804   0.925
  132SOL    HW1  437   4.733   0.800   0.863
  132SOL    HW2  438   4.671   0.724   0.977
  133SOL     OW  439   4.662   0.517   1.024
  133SOL    HW1  440   4.612   0.436   1.004
  133SOL    HW2  441   4.740   0.503   0.966
  134SOL     OW  442   5.492   0.363   1.647
  134SOL    HW1  443   5.439   0.393   1.723
  134SOL    HW2  444   5.573   0.415   1.656
  135SOL     OW  445   1.221   0.182   1.453
  135SOL    HW1  446   1.194   0.238   1.529
  135SOL    HW2  447   1.255   0.249   1.391
  136SOL     OW  448   0.097   1.292   0.112
  136SOL    HW1  449   0.071   1.241   0.033
  136SOL    HW2  450   0.074   1.228   0.183
  137SOL     OW  451   4.442   1.783   0.991
  137SOL    HW1  452   4.381   1.838   0.938
  137SOL    HW2  453   4.527   1.795   0.944
  138SOL     OW  454   4.819   1.559   0.935
  138SOL    HW1  455   4.888   1.626   0.957
  138SOL    HW2  456   4.871   1.496   0.881
  139SOL     OW  457   0.975   0.820   1.192
  139SOL    HW1  458   1.022   0.782   1.268
  139SOL    HW2  459   0.888   0.838   1.229
  140SOL     OW  460   4.442   0.631   1.151
  140SOL    HW1  461   4.523   0.594   1.110
  140SOL    HW2  462   4.428   0.571   1.226
  141SOL     OW  463   4.474   0.448   1.743
  141SOL    HW1  464   4.544   0.401   1.792
  141SOL    HW2  465   4.517   0.533   1.722
  142SOL     OW  466   1.334   0.941   1.630
  142SOL    HW1  467   1.373   1.031   1.634
  142SOL    HW2  468   1.242   0.963   1.608
  143SOL     OW  469   0.861   0.624   0.401
  143SOL    HW1  470   0.854   0.558   0.330
  143SOL    HW2  471   0.777   0.674   0.390
  144SOL     OW  472   1.563   0.694   1.153
  144SOL    HW1  473   1.536   0.637   1.226
  144SOL    HW2  474   1.660   0.682   1.154
  145SOL     OW  475   4.585   1.554   1.706
  145SOL    HW1  476   4.530   1.607   1.765
  145SOL    HW2  477   4.544   1.467   1.712
  146SOL     OW  478   5.121   0.471   1.203
  146SOL    HW1  479   5.058   0.397   1.203
  146SOL    HW2  480   5.090   0.524   1.127
  147SOL     OW  481   5.326   1.646   1.435
  147SOL    HW1  482   5.271   1.600   1.369
  147SOL    HW2  483   5.310   1.740   1.411
  148SOL     OW  484   4.494   1.100   1.435
  148SOL    HW1  485   4.498   1.057   1.522
  148SOL    HW2  486   4.484   1.024   1.375
  149SOL     OW  487   1.258   1.042   1.218
  149SOL    HW1  488   1.179   0.991   1.196
  149SOL    HW2  489   1.237   1.129   1.177
  150SOL     OW  490   1.345   0.827   0.279
  150SOL    HW1  491   1.260   0.807   0.320
  150SOL    HW2  492   1.325   0.817   0.184
  151SOL     OW  493   1.758   1.736   1.148
  151SOL    HW1  494   1.835   1.756   1.092
  151SOL    HW2  495   1.739   1.645   1.119
  152SOL     OW  496   1.274   1.741   1.059
  152SOL    HW1  497   1.360   1.786   1.061
  152SOL    HW2  498   1.297   1.653   1.094
  153SOL     OW  499   4.378   1.180   1.003
  153SOL    HW1  500   4.382   1.218   1.094
  153SOL    HW2  501   4.315   1.240   0.960
  154SOL     OW  502   5.080   1.671   1.771
  154SOL    HW1  503   5.043   1.708   1.688
  154SOL    HW2  504   5.175   1.662   1.749
  155SOL     OW  505   0.877   0.172   0.133
  155SOL    HW1  506   0.965   0.138   0.116
  155SOL    HW2  507   0.831   0.094   0.171
  156SOL     OW  508   1.728   0.213   0.466
  156SOL    HW1  509   1.795   0.218   0.393
  156SOL    HW2  510   1.745   0.123   0.501
  157SOL     OW  511   1.371   1.592   0.542
  157SOL    HW1  512   1.350   1.623   0.452
  157SOL    HW2  513   1.324   1.658   0.595
  158SOL     OW  514   4.444   1.725   1.868
  158SOL    HW1  515   4.405   1.656   1.925
  158SOL    HW2  516   4.511   1.765   1.927
  159SOL     OW  517   1.272   0.954   0.677
  159SOL    HW1  518   1.351   0.898   0.682
  159SOL    HW2  519   1.307   1.032   0.630
  160SOL     OW  520   5.097   1.252   1.456
  160SOL    HW1  521   5.084   1.312   1.533
  160SOL    HW2  522   5.017   1.271   1.403
  161SOL     OW  523   0.666   1.644   0.202
  161SOL    HW1  524   0.671   1.683   0.114
  161SOL    HW2  525   0.631   1.554   0.183
  162SOL     OW  526   1.618   1.712   1.414
  162SOL    HW1  527   1.662   1.721   1.328
  162SOL    HW2  528   1.637   1.799   1.455
  163SOL     OW  529   1.823   0.209   1.020
  163SOL    HW1  530   1.841   0.128   0.968
  163SOL    HW2  531   1.754   0.251   0.966
  164SOL     OW  532   4.619   0.291   0.724
  164SOL    HW1  533   4.530   0.324   0.697
  164SOL    HW2  534   4.610   0.290   0.821
  165SOL     OW  535   1.215   1.600   0.059
  165SOL    HW1  536   1.203   1.508   0.089
  165SOL    HW2  537   1.195   1.593  -0.036
  166SOL     OW  538   5.144   1.007   1.367
  166SOL    HW1  539   5.135   1.037   1.275
  166SOL    HW2  540   5.128   1.091   1.414
  167SOL     OW  541   0.979   0.959   0.329
  167SOL    HW1  542   1.004   0.960   0.234
  167SOL    HW2  543   1.029   0.883   0.361
  168SOL     OW  544   1.486   1.673   0.080
  168SOL    HW1  545   1.392   1.647   0.075
  168SOL    HW2  546   1.504   1.695  -0.013
  169SOL     OW  547   4.683   1.295   1.502
  169SOL    HW1  548   4.667   1.370   1.443
  169SOL    HW2  549   4.624   1.226   1.466
  170SOL     OW  550   1.608   1.294   1.207
  170SOL    HW1  551   1.696   1.285   1.248
  170SOL    HW2  552   1.560   1.349   1.271
  171SOL     OW  553   1.084   1.141   0.770
  171SOL    HW1  554   1.007   1.089   0.797
  171SOL    HW2  555   1.144   1.073   0.735
  172SOL     OW  556   1.061   0.240   0.969
  172SOL    HW1  557   1.057   0.180   0.892
  172SOL    HW2  558   1.040   0.177   1.040
  173SOL     OW  559   0.610   1.491   0.553
  173SOL    HW1  560   0.651   1.440   0.480
  173SOL    HW2  561   0.515   1.483   0.533
  174SOL     OW  562   1.871   0.328   1.500
  174SOL    HW1  563   1.906   0.413   1.467
  174SOL    HW2  564   1.846   0.283   1.417
  175SOL     OW  565   0.354   1.308   0.299
  175SOL    HW1  566   0.272   1.313   0.247
  175SOL    HW2  567   0.343   1.376   0.367
  176SOL     OW  568   4.511   0.979   1.683
  176SOL    HW1  569   4.467   1.043   1.740
  176SOL    HW2  570   4.597   0.967   1.730
  177SOL     OW  571   5.066   0.263   1.471
  177SOL    HW1  572   5.145   0.214   1.439
  177SOL    HW2  573   5.086   0.272   1.566
  178SOL     OW  574   6.468   2.496   3.027
  178SOL    HW1  575   6.495   2.489   2.933
  178SOL    HW2  576   6.515   2.576   3.055
  179SOL     OW  577   1.462   0.860   1.394
  179SOL    HW1  578   1.404   0.891   1.466
  179SOL    HW2  579   1.548   0.895   1.423
  180SOL     OW  580   4.412   0.202   0.441
  180SOL    HW1  581   4.465   0.234   0.365
  180SOL    HW2  582   4.462   0.125   0.473
  181SOL     OW  583   1.187   1.357   0.175
  181SOL    HW1  584   1.090   1.345   0.170
  181SOL    HW2  585   1.204   1.347   0.270
  182SOL     OW  586   4.967   0.813   1.437
  182SOL    HW1  587   5.021   0.891   1.418
  182SOL    HW2  588   5.034   0.742   1.432
  183SOL     OW  589   1.519   1.858   1.064
  183SOL    HW1  590   1.552   1.913   0.990
  183SOL    HW2  591   1.601   1.819   1.098
  184SOL     OW  592   5.041   0.555   1.672
  184SOL    HW1  593   5.106   0.607   1.723
  184SOL    HW2  594   5.059   0.463   1.701
  185SOL     OW  595   1.447   1.183   1.625
  185SOL    HW1  596   1.437   1.215   1.717
  185SOL    HW2  597   1.537   1.214   1.603
  186SOL     OW  598   4.713   1.774   1.617
  186SOL    HW1  599   4.627   1.818   1.603
  186SOL    HW2  600   4.684   1.685   1.643
  187SOL     OW  601   1.224   0.309   0.445
  187SOL    HW1  602   1.304   0.253   0.449
  187SOL    HW2  603   1.229   0.356   0.531
  188SOL     OW  604   4.852   0.781   0.743
  188SOL    HW1  605   4.919   0.844   0.710
  188SOL    HW2  606   4.817   0.744   0.660
  189SOL     OW  607   1.688   0.973   1.490
  189SOL    HW1  608   1.686   1.067   1.516
  189SOL    HW2  609   1.781   0.962   1.464
  190SOL     OW  610   0.914   1.357   0.155
  190SOL    HW1  611   0.860   1.360   0.236
  190SOL    HW2  612   0.852   1.325   0.090
  191SOL     OW  613   4.993   1.757   0.968
  191SOL    HW1  614   4.969   1.851   0.964
  191SOL    HW2  615   5.089   1.758   0.955
  192SOL     OW  616   0.877   0.992   0.883
  192SOL    HW1  617   0.923   0.908   0.900
  192SOL    HW2  618   0.838   1.013   0.969
  193SOL     OW  619   1.059   0.930   0.072
  193SOL    HW1  620   0.995   0.920  -0.001
  193SOL    HW2  621   1.136   0.878   0.040
  194SOL     OW  622   1.848   1.568   0.796
  194SOL    HW1  623   1.765   1.587   0.748
  194SOL    HW2  624   1.814   1.523   0.875
  195SOL     OW  625   4.628   1.263   1.888
  195SOL    HW1  626   4.547   1.283   1.837
  195SOL    HW2  627   4.600   1.275   1.980
  196SOL     OW  628   4.432   1.323   0.574
  196SOL    HW1  629   4.353   1.279   0.610
  196SOL    HW2  630   4.488   1.247   0.552
  197SOL     OW  631   5.051   1.417   1.660
  197SOL    HW1  632   4.968   1.374   1.689
  197SOL    HW2  633   5.047   1.503   1.704
  198SOL     OW  634   1.803   0.178   1.288
  198SOL    HW1  635   1.715   0.137   1.286
  198SOL    HW2  636   1.818   0.195   1.192
  199SOL     OW  637   0.490   0.413   0.582
  199SOL    HW1  638   0.504   0.366   0.498
  199SOL    HW2  639   0.419   0.361   0.625
  200SOL     OW  640   1.715   1.493   1.034
  200SOL    HW1  641   1.633   1.492   0.981
  200SOL    HW2  642   1.698   1.418   1.093
  201SOL     OW  643   4.698   0.556   1.301
  201SOL    HW1  644   4.752   0.497   1.358
  201SOL    HW2  645   4.714   0.521   1.212
  202SOL     OW  646   0.814   1.640   0.655
  202SOL    HW1  647   0.808   1.725   0.607
  202SOL    HW2  648   0.735   1.593   0.624
  203SOL     OW  649   1.470   0.256   1.086
  203SOL    HW1  650   1.503   0.170   1.118
  203SOL    HW2  651   1.422   0.291   1.163
  204SOL     OW  652   0.981   0.035   1.135
  204SOL    HW1  653   0.903   0.017   1.080
  204SOL    HW2  654   1.017  -0.054   1.147
  205SOL     OW  655   0.775   1.341   0.392
  205SOL    HW1  656   0.765   1.244   0.403
  205SOL    HW2  657   0.856   1.359   0.441
  206SOL     OW  658   4.927   1.558   1.336
  206SOL    HW1  659   4.940   1.620   1.410
  206SOL    HW2  660   5.016   1.557   1.297
  207SOL     OW  661   1.359   0.047   0.195
  207SOL    HW1  662   1.405   0.065   0.112
  207SOL    HW2  663   1.279   0.103   0.186
  208SOL     OW  664   1.247   0.464   0.666
  208SOL    HW1  665   1.204   0.552   0.669
  208SOL    HW2  666   1.251   0.440   0.761
  209SOL     OW  667   1.628   0.313   0.853
  209SOL    HW1  668   1.562   0.305   0.925
  209SOL    HW2  669   1.584   0.373   0.789
  210SOL     OW  670   4.367   1.101   0.291
  210SOL    HW1  671   4.453   1.053   0.289
  210SOL    HW2  672   4.305   1.030   0.313
  211SOL     OW  673   0.896   1.686   0.342
  211SOL    HW1  674   0.812   1.663   0.298
  211SOL    HW2  675   0.870   1.757   0.403
  212SOL     OW  676   4.517   0.709   2.029
  212SOL    HW1  677   4.518   0.627   2.082
  212SOL    HW2  678   4.435   0.700   1.980
  213SOL     OW  679   4.551   0.254   2.852
  213SOL    HW1  680   4.546   0.224   2.944
  213SOL    HW2  681   4.478   0.204   2.810
  214SOL     OW  682   4.362   0.403   2.572
  214SOL    HW1  683   4.328   0.452   2.650
  214SOL    HW2  684   4.282   0.403   2.515
  215SOL     OW  685   4.920   1.291   3.052
  215SOL    HW1  686   4.833   1.307   3.012
  215SOL    HW2  687   4.942   1.379   3.087
  216SOL     OW  688   5.926   1.510   2.548
  216SOL    HW1  689   5.882   1.466   2.623
  216SOL    HW2  690   5.852   1.521   2.485
  217SOL     OW  691   5.462   0.699   2.533
  217SOL    HW1  692   5.512   0.779   2.507
  217SOL    HW2  693   5.421   0.726   2.616
  218SOL     OW  694   1.827   0.592   2.054
  218SOL    HW1  695   1.764   0.610   1.981
  218SOL    HW2  696   1.773   0.535   2.113
  219SOL     OW  697   5.077   1.122   2.899
  219SOL    HW1  698   5.016   1.158   2.967
  219SOL    HW2  699   5.119   1.205   2.871
  220SOL     OW  700   5.005   0.956   2.518
  220SOL    HW1  701   5.082   0.970   2.577
  220SOL    HW2  702   4.946   1.031   2.541
  221SOL     OW  703   4.688   1.394   2.946
  221SOL    HW1  704   4.594   1.381   2.925
  221SOL    HW2  705   4.720   1.452   2.875
  222SOL     OW  706   3.632   3.693   0.109
  222SOL    HW1  707   3.703   3.755   0.133
  222SOL    HW2  708   3.559   3.723   0.166
  223SOL     OW  709   5.890   0.507   2.572
  223SOL    HW1  710   5.802   0.482   2.537
  223SOL    HW2  711   5.884   0.603   2.567
  224SOL     OW  712   4.613   1.710   2.338
  224SOL    HW1  713   4.628   1.792   2.389
  224SOL    HW2  714   4.681   1.719   2.269
  225SOL     OW  715   4.685   1.456   2.384
  225SOL    HW1  716   4.660   1.550   2.377
  225SOL    HW2  717   4.613   1.420   2.439
  226SOL     OW  718   4.594   1.062   2.679
  226SOL    HW1  719   4.619   0.978   2.722
  226SOL    HW2  720   4.528   1.098   2.741
  227SOL     OW  721   2.772   3.987   0.171
  227SOL    HW1  722   2.767   3.944   0.257
  227SOL    HW2  723   2.799   4.076   0.199
  228SOL     OW  724   4.914   0.973   2.023
  228SOL    HW1  725   4.968   1.029   1.964
  228SOL    HW2  726   4.949   1.001   2.110
  229SOL     OW  727   3.717   2.170   0.382
  229SOL    HW1  728   3.704   2.261   0.349
  229SOL    HW2  729   3.808   2.151   0.356
  230SOL     OW  730   4.480   0.607   2.431
  230SOL    HW1  731   4.444   0.531   2.479
  230SOL    HW2  732   4.456   0.679   2.491
  231SOL     OW  733   1.852   1.724   2.199
  231SOL    HW1  734   1.935   1.721   2.251
  231SOL    HW2  735   1.851   1.818   2.173
  232SOL     OW  736   4.351   1.531   2.025
  232SOL    HW1  737   4.334   1.436   2.036
  232SOL    HW2  738   4.354   1.559   2.119
  233SOL     OW  739   6.044   0.955   2.530
  233SOL    HW1  740   6.137   0.928   2.523
  233SOL    HW2  741   6.032   1.011   2.451
  234SOL     OW  742   1.678   1.120   2.300
  234SOL    HW1  743   1.761   1.105   2.251
  234SOL    HW2  744   1.705   1.194   2.360
  235SOL     OW  745   4.976   1.363   2.654
  235SOL    HW1  746   4.925   1.283   2.632
  235SOL    HW2  747   4.981   1.407   2.567
  236SOL     OW  748   3.461   3.404   0.170
  236SOL    HW1  749   3.444   3.320   0.123
  236SOL    HW2  750   3.555   3.416   0.150
  237SOL     OW  751   5.209   0.079   2.457
  237SOL    HW1  752   5.237   0.153   2.400
  237SOL    HW2  753   5.120   0.058   2.422
  238SOL     OW  754   2.357   3.117   0.076
  238SOL    HW1  755   2.425   3.064   0.032
  238SOL    HW2  756   2.276   3.066   0.063
  239SOL     OW  757   1.556   1.066   2.057
  239SOL    HW1  758   1.484   1.006   2.087
  239SOL    HW2  759   1.596   1.090   2.142
  240SOL     OW  760   5.825   1.378   2.767
  240SOL    HW1  761   5.755   1.407   2.828
  240SOL    HW2  762   5.795   1.287   2.745
  241SOL     OW  763   5.949   1.855   2.401
  241SOL    HW1  764   5.941   1.788   2.331
  241SOL    HW2  765   5.971   1.801   2.478
  242SOL     OW  766   4.897   0.698   2.139
  242SOL    HW1  767   4.900   0.787   2.100
  242SOL    HW2  768   4.840   0.712   2.218
  243SOL     OW  769   5.606   0.425   2.791
  243SOL    HW1  770   5.519   0.385   2.810
  243SOL    HW2  771   5.665   0.369   2.845
  244SOL     OW  772   1.586   1.671   2.197
  244SOL    HW1  773   1.683   1.674   2.190
  244SOL    HW2  774   1.559   1.661   2.104
  245SOL     OW  775   2.991   2.610   0.240
  245SOL    HW1  776   2.959   2.586   0.328
  245SOL    HW2  777   2.912   2.591   0.184
  246SOL     OW  778   3.209   2.575   0.072
  246SOL    HW1  779   3.142   2.587   0.143
  246SOL    HW2  780   3.161   2.605  -0.006
  247SOL     OW  781   5.359   0.667   2.278
  247SOL    HW1  782   5.385   0.669   2.372
  247SOL    HW2  783   5.268   0.630   2.282
  248SOL     OW  784   4.426   0.747   2.672
  248SOL    HW1  785   4.515   0.765   2.708
  248SOL    HW2  786   4.372   0.811   2.723
  249SOL     OW  787   5.177   0.349   2.068
  249SOL    HW1  788   5.229   0.392   1.998
  249SOL    HW2  789   5.153   0.265   2.024
  250SOL     OW  790   5.734   1.148   2.417
  250SOL    HW1  791   5.820   1.152   2.372
  250SOL    HW2  792   5.681   1.212   2.367
  251SOL     OW  793   4.928   0.254   2.780
  251SOL    HW1  794   4.881   0.242   2.864
  251SOL    HW2  795   4.901   0.343   2.753
  252SOL     OW  796   5.341   1.450   2.338
  252SOL    HW1  797   5.317   1.523   2.278
  252SOL    HW2  798   5.322   1.489   2.424
  253SOL     OW  799   4.715   1.804   2.731
  253SOL    HW1  800   4.750   1.713   2.742
  253SOL    HW2  801   4.795   1.858   2.747
  254SOL     OW  802   6.136   1.058   2.773
  254SOL    HW1  803   6.087   1.044   2.690
  254SOL    HW2  804   6.063   1.059   2.838
  255SOL     OW  805   3.408   3.745   0.265
  255SOL    HW1  806   3.445   3.680   0.329
  255SOL    HW2  807   3.341   3.691   0.219
  256SOL     OW  808   4.633   0.937   2.124
  256SOL    HW1  809   4.706   0.954   2.062
  256SOL    HW2  810   4.596   0.853   2.088
  257SOL     OW  811   5.838   0.783   2.569
  257SOL    HW1  812   5.816   0.764   2.662
  257SOL    HW2  813   5.910   0.849   2.576
  258SOL     OW  814   5.498   1.775   2.087
  258SOL    HW1  815   5.418   1.741   2.131
  258SOL    HW2  816   5.513   1.707   2.019
  259SOL     OW  817   1.642   1.391   1.952
  259SOL    HW1  818   1.607   1.481   1.947
  259SOL    HW2  819   1.565   1.338   1.924
  260SOL     OW  820   4.831   1.734   2.174
  260SOL    HW1  821   4.882   1.790   2.235
  260SOL    HW2  822   4.902   1.683   2.131
  261SOL     OW  823   5.778   0.174   2.256
  261SOL    HW1  824   5.834   0.112   2.207
  261SOL    HW2  825   5.797   0.150   2.348
  262SOL     OW  826   2.381   3.933   0.094
  262SOL    HW1  827   2.446   3.860   0.097
  262SOL    HW2  828   2.360   3.937  -0.002
  263SOL     OW  829   5.312   1.714   2.763
  263SOL    HW1  830   5.403   1.686   2.784
  263SOL    HW2  831   5.288   1.654   2.690
  264SOL     OW  832   4.742   0.665   2.363
  264SOL    HW1  833   4.768   0.571   2.374
  264SOL    HW2  834   4.646   0.659   2.376
  265SOL     OW  835   5.092   0.121   1.947
  265SOL    HW1  836   5.089   0.055   2.020
  265SOL    HW2  837   5.084   0.059   1.871
  266SOL     OW  838   5.222   1.531   3.062
  266SOL    HW1  839   5.212   1.482   2.978
  266SOL    HW2  840   5.296   1.484   3.106
  267SOL     OW  841   3.529   2.787   0.210
  267SOL    HW1  842   3.604   2.764   0.269
  267SOL    HW2  843   3.543   2.883   0.199
  268SOL     OW  844   5.187   1.368   2.836
  268SOL    HW1  845   5.264   1.363   2.776
  268SOL    HW2  846   5.113   1.379   2.773
  269SOL     OW  847   5.257   0.521   2.762
  269SOL    HW1  848   5.234   0.506   2.668
  269SOL    HW2  849   5.296   0.434   2.786
  270SOL     OW  850   4.956   0.034   2.358
  270SOL    HW1  851   4.887   0.028   2.426
  270SOL    HW2  852   4.922   0.103   2.299
  271SOL     OW  853   1.418   1.238   1.892
  271SOL    HW1  854   1.460   1.173   1.952
  271SOL    HW2  855   1.335   1.259   1.936
  272SOL     OW  856   4.700   0.082   2.046
  272SOL    HW1  857   4.775   0.123   2.093
  272SOL    HW2  858   4.639   0.063   2.120
  273SOL     OW  859   5.295   0.292   2.312
  273SOL    HW1  860   5.258   0.313   2.225
  273SOL    HW2  861   5.391   0.306   2.299
  274SOL     OW  862   3.272   2.886   0.217
  274SOL    HW1  863   3.275   2.921   0.306
  274SOL    HW2  864   3.355   2.835   0.212
  275SOL     OW  865   5.515   1.560   2.593
  275SOL    HW1  866   5.533   1.628   2.527
  275SOL    HW2  867   5.554   1.600   2.673
  276SOL     OW  868   4.822   1.156   2.558
  276SOL    HW1  869   4.743   1.128   2.607
  276SOL    HW2  870   4.788   1.152   2.466
  277SOL     OW  871   5.572   1.789   2.451
  277SOL    HW1  872   5.617   1.860   2.401
  277SOL    HW2  873   5.511   1.842   2.506
  278SOL     OW  874   5.337   0.463   1.863
  278SOL    HW1  875   5.308   0.551   1.833
  278SOL    HW2  876   5.395   0.485   1.939
  279SOL     OW  877   2.288   2.669   0.209
  279SOL    HW1  878   2.381   2.696   0.215
  279SOL    HW2  879   2.266   2.642   0.300
  280SOL     OW  880   4.825   0.210   3.028
  280SOL    HW1  881   4.852   0.123   3.063
  280SOL    HW2  882   4.730   0.214   3.053
  281SOL     OW  883   5.199   0.471   2.503
  281SOL    HW1  884   5.143   0.513   2.436
  281SOL    HW2  885   5.237   0.398   2.451
  282SOL     OW  886   5.320   0.058   2.694
  282SOL    HW1  887   5.280   0.068   2.604
  282SOL    HW2  888   5.381  -0.015   2.681
  283SOL     OW  889   5.742   1.123   2.712
  283SOL    HW1  890   5.679   1.052   2.735
  283SOL    HW2  891   5.730   1.130   2.615
  284SOL     OW  892   5.754   0.678   2.814
  284SOL    HW1  893   5.705   0.593   2.811
  284SOL    HW2  894   5.821   0.661   2.883
  285SOL     OW  895   1.846   0.803   2.228
  285SOL    HW1  896   1.906   0.765   2.295
  285SOL    HW2  897   1.846   0.733   2.160
  286SOL     OW  898   4.831   1.435   2.005
  286SOL    HW1  899   4.771   1.404   2.074
  286SOL    HW2  900   4.788   1.400   1.926
  287SOL     OW  901   1.766   1.299   2.470
  287SOL    HW1  902   1.857   1.303   2.504
  287SOL    HW2  903   1.726   1.381   2.502
  288SOL     OW  904   5.686   0.565   1.918
  288SOL    HW1  905   5.611   0.552   1.980
  288SOL    HW2  906   5.754   0.510   1.961
  289SOL     OW  907   4.890   0.234   2.177
  289SOL    HW1  908   4.972   0.236   2.125
  289SOL    HW2  909   4.847   0.317   2.149
  290SOL     OW  910   3.240   3.561   0.157
  290SOL    HW1  911   3.166   3.516   0.203
  290SOL    HW2  912   3.312   3.495   0.163
  291SOL     OW  913   5.448   1.238   2.948
  291SOL    HW1  914   5.357   1.256   2.970
  291SOL    HW2  915   5.450   1.265   2.854
  292SOL     OW  916   5.911   1.072   2.930
  292SOL    HW1  917   5.888   1.142   2.995
  292SOL    HW2  918   5.847   1.089   2.859
  293SOL     OW  919   3.115   2.264   0.234
  293SOL    HW1  920   3.114   2.260   0.136
  293SOL    HW2  921   3.205   2.302   0.250
  294SOL     OW  922   5.046   1.037   2.257
  294SOL    HW1  923   5.025   1.000   2.345
  294SOL    HW2  924   5.131   0.991   2.237
  295SOL     OW  925   4.754   0.809   3.053
  295SOL    HW1  926   4.806   0.860   3.119
  295SOL    HW2  927   4.739   0.726   3.101
  296SOL     OW  928   3.472   2.548   0.100
  296SOL    HW1  929   3.495   2.636   0.136
  296SOL    HW2  930   3.376   2.560   0.083
  297SOL     OW  931   2.205   3.714   0.144
  297SOL    HW1  932   2.259   3.795   0.135
  297SOL    HW2  933   2.248   3.669   0.218
  298SOL     OW  934   4.710   1.125   2.313
  298SOL    HW1  935   4.679   1.195   2.254
  298SOL    HW2  936   4.691   1.045   2.260
  299SOL     OW  937   4.856   0.524   2.766
  299SOL    HW1  938   4.855   0.591   2.696
  299SOL    HW2  939   4.934   0.551   2.818
  300SOL     OW  940   5.585   1.348   2.267
  300SOL    HW1  941   5.639   1.423   2.298
  300SOL    HW2  942   5.497   1.371   2.303
  301SOL     OW  943   5.644   1.451   2.957
  301SOL    HW1  944   5.695   1.470   3.037
  301SOL    HW2  945   5.584   1.380   2.985
  302SOL     OW  946   5.944   0.683   2.328
  302SOL    HW1  947   5.897   0.731   2.397
  302SOL    HW2  948   6.008   0.748   2.295
  303SOL     OW  949   2.532   3.704   0.109
  303SOL    HW1  950   2.523   3.649   0.028
  303SOL    HW2  951   2.629   3.713   0.113
  304SOL     OW  952   5.004   0.853   2.913
  304SOL    HW1  953   5.033   0.946   2.911
  304SOL    HW2  954   4.917   0.859   2.954
  305SOL     OW  955   5.603   0.902   2.813
  305SOL    HW1  956   5.515   0.864   2.801
  305SOL    HW2  957   5.659   0.822   2.816
  306SOL     OW  958   5.481   0.520   2.088
  306SOL    HW1  959   5.515   0.454   2.152
  306SOL    HW2  960   5.439   0.584   2.149
  307SOL     OW  961   2.401   2.364   0.058
  307SOL    HW1  962   2.324   2.392   0.110
  307SOL    HW2  963   2.418   2.276   0.096
  308SOL     OW  964   4.409   1.356   2.998
  308SOL    HW1  965   4.421   1.292   3.071
  308SOL    HW2  966   4.381   1.435   3.048
  309SOL     OW  967   5.063   0.593   2.935
  309SOL    HW1  968   5.136   0.571   2.873
  309SOL    HW2  969   5.051   0.689   2.919
  310SOL     OW  970   4.750   0.049   2.543
  310SOL    HW1  971   4.723   0.140   2.563
  310SOL    HW2  972   4.663   0.007   2.528
  311SOL     OW  973   1.674   0.445   2.219
  311SOL    HW1  974   1.707   0.384   2.287
  311SOL    HW2  975   1.645   0.523   2.271
  312SOL     OW  976   5.358   0.772   2.795
  312SOL    HW1  977   5.343   0.787   2.891
  312SOL    HW2  978   5.325   0.680   2.786
  313SOL     OW  979   1.501   0.356   2.036
  313SOL    HW1  980   1.460   0.294   2.098
  313SOL    HW2  981   1.570   0.395   2.093
  314SOL     OW  982   5.608   0.826   1.884
  314SOL    HW1  983   5.646   0.736   1.889
  314SOL    HW2  984   5.637   0.857   1.797
  315SOL     OW  985   5.413   1.332   2.695
  315SOL    HW1  986   5.422   1.258   2.631
  315SOL    HW2  987   5.454   1.407   2.647
  316SOL     OW  988   4.665   0.821   2.785
  316SOL    HW1  989   4.739   0.791   2.730
  316SOL    HW2  990   4.699   0.810   2.876
  317SOL     OW  991   4.662   0.483   2.950
  317SOL    HW1  992   4.625   0.401   2.914
  317SOL    HW2  993   4.728   0.505   2.881
  318SOL     OW  994   3.365   2.357   0.274
  318SOL    HW1  995   3.391   2.410   0.351
  318SOL    HW2  996   3.400   2.413   0.202
  319SOL     OW  997   4.312   1.272   2.118
  319SOL    HW1  998   4.216   1.285   2.134
  319SOL    HW2  999   4.325   1.179   2.141
  320SOL     OW 1000   4.493   1.798   2.894
  320SOL    HW1 1001   4.422   1.842   2.845
  320SOL    HW2 1002   4.567   1.798   2.830
  321SOL     OW 1003   4.834   1.560   2.780
  321SOL    HW1 1004   4.910   1.615   2.809
  321SOL    HW2 1005   4.880   1.487   2.735
  322SOL     OW 1006   5.309   0.806   3.057
  322SOL    HW1 1007   5.367   0.778   3.132
  322SOL    HW2 1008   5.222   0.801   3.100
  323SOL     OW 1009   4.402   0.543   3.004
  323SOL    HW1 1010   4.497   0.531   2.986
  323SOL    HW2 1011   4.398   0.531   3.100
  324SOL     OW 1012   5.110   0.559   2.248
  324SOL    HW1 1013   5.118   0.486   2.183
  324SOL    HW2 1014   5.036   0.611   2.212
  325SOL     OW 1015   5.948   0.635   3.003
  325SOL    HW1 1016   5.947   0.563   3.069
  325SOL    HW2 1017   6.043   0.634   2.977
  326SOL     OW 1018   2.785   2.592   0.064
  326SOL    HW1 1019   2.744   2.512   0.025
  326SOL    HW2 1020   2.819   2.637  -0.015
  327SOL     OW 1021   3.072   3.875   0.217
  327SOL    HW1 1022   3.066   3.829   0.132
  327SOL    HW2 1023   3.067   3.969   0.192
  328SOL     OW 1024   4.771   0.457   2.082
  328SOL    HW1 1025   4.814   0.544   2.091
  328SOL    HW2 1026   4.684   0.473   2.124
  329SOL     OW 1027   2.283   3.361   0.151
  329SOL    HW1 1028   2.223   3.332   0.222
  329SOL    HW2 1029   2.319   3.275   0.120
  330SOL     OW 1030   5.594   1.034   3.055
  330SOL    HW1 1031   5.605   0.978   2.976
  330SOL    HW2 1032   5.539   1.106   3.017
  331SOL     OW 1033   5.680   0.917   2.136
  331SOL    HW1 1034   5.616   0.889   2.203
  331SOL    HW2 1035   5.644   0.880   2.054
  332SOL     OW 1036   6.063   1.727   2.986
  332SOL    HW1 1037   6.143   1.760   2.942
  332SOL    HW2 1038   6.064   1.632   2.961
  333SOL     OW 1039   5.583   1.681   2.826
  333SOL    HW1 1040   5.662   1.737   2.841
  333SOL    HW2 1041   5.605   1.602   2.880
  334SOL     OW 1042   4.375   1.161   2.811
  334SOL    HW1 1043   4.381   1.234   2.875
  334SOL    HW2 1044   4.307   1.192   2.749
  335SOL     OW 1045   1.797   0.255   2.383
  335SOL    HW1 1046   1.816   0.202   2.304
  335SOL    HW2 1047   1.836   0.200   2.453
  336SOL     OW 1048   5.727   1.567   2.358
  336SOL    HW1 1049   5.792   1.604   2.295
  336SOL    HW2 1050   5.673   1.645   2.380
  337SOL     OW 1051   5.615   0.912   2.468
  337SOL    HW1 1052   5.694   0.863   2.498
  337SOL    HW2 1053   5.654   0.997   2.440
  338SOL     OW 1054   3.009   3.454   0.257
  338SOL    HW1 1055   2.970   3.414   0.337
  338SOL    HW2 1056   2.941   3.517   0.231
  339SOL     OW 1057   5.037   1.604   2.030
  339SOL    HW1 1058   5.045   1.637   1.938
  339SOL    HW2 1059   4.964   1.539   2.021
  340SOL     OW 1060   3.831   3.865   0.198
  340SOL    HW1 1061   3.867   3.884   0.110
  340SOL    HW2 1062   3.839   3.951   0.243
  341SOL     OW 1063   6.163   0.196   2.832
  341SOL    HW1 1064   6.201   0.155   2.751
  341SOL    HW2 1065   6.080   0.232   2.795
  342SOL     OW 1066   4.632   0.296   2.592
  342SOL    HW1 1067   4.548   0.338   2.569
  342SOL    HW2 1068   4.624   0.286   2.688
  343SOL     OW 1069   5.550   1.591   1.894
  343SOL    HW1 1070   5.532   1.501   1.927
  343SOL    HW2 1071   5.482   1.602   1.826
  344SOL     OW 1072   2.995   3.209   0.130
  344SOL    HW1 1073   3.079   3.189   0.087
  344SOL    HW2 1074   3.010   3.297   0.169
  345SOL     OW 1075   5.272   0.913   2.193
  345SOL    HW1 1076   5.299   0.913   2.099
  345SOL    HW2 1077   5.308   0.828   2.224
  346SOL     OW 1078   1.490   1.650   1.936
  346SOL    HW1 1079   1.397   1.628   1.916
  346SOL    HW2 1080   1.529   1.650   1.846
  347SOL     OW 1081   2.407   3.548   0.299
  347SOL    HW1 1082   2.460   3.604   0.239
  347SOL    HW2 1083   2.369   3.481   0.238
  348SOL     OW 1084   3.714   3.439   0.057
  348SOL    HW1 1085   3.812   3.439   0.059
  348SOL    HW2 1086   3.694   3.533   0.074
  349SOL     OW 1087   5.420   1.105   2.553
  349SOL    HW1 1088   5.342   1.060   2.592
  349SOL    HW2 1089   5.470   1.031   2.515
  350SOL     OW 1090   5.370   0.281   2.844
  350SOL    HW1 1091   5.356   0.208   2.781
  350SOL    HW2 1092   5.352   0.235   2.928
  351SOL     OW 1093   4.967   1.481   2.409
  351SOL    HW1 1094   5.004   1.424   2.340
  351SOL    HW2 1095   4.871   1.473   2.393
  352SOL     OW 1096   3.855   2.599   0.127
  352SOL    HW1 1097   3.945   2.634   0.139
  352SOL    HW2 1098   3.874   2.509   0.095
  353SOL     OW 1099   4.592   1.327   2.156
  353SOL    HW1 1100   4.495   1.326   2.156
  353SOL    HW2 1101   4.613   1.383   2.232
  354SOL     OW 1102   2.859   2.311   0.292
  354SOL    HW1 1103   2.952   2.295   0.265
  354SOL    HW2 1104   2.871   2.384   0.355
  355SOL     OW 1105   4.210   0.460   1.758
  355SOL    HW1 1106   4.206   0.519   1.836
  355SOL    HW2 1107   4.307   0.445   1.754
  356SOL     OW 1108   3.562   3.056   0.197
  356SOL    HW1 1109   3.509   3.105   0.131
  356SOL    HW2 1110   3.652   3.068   0.162
  357SOL     OW 1111   4.379   0.209   2.157
  357SOL    HW1 1112   4.359   0.168   2.071
  357SOL    HW2 1113   4.443   0.145   2.194
  358SOL     OW 1114   5.490   1.339   1.996
  358SOL    HW1 1115   5.394   1.333   2.005
  358SOL    HW2 1116   5.520   1.334   2.088
  359SOL     OW 1117   2.768   3.075   0.168
  359SOL    HW1 1118   2.840   3.139   0.152
  359SOL    HW2 1119   2.820   2.992   0.169
  360SOL     OW 1120   5.830   1.816   2.865
  360SOL    HW1 1121   5.859   1.893   2.814
  360SOL    HW2 1122   5.915   1.775   2.891
  361SOL     OW 1123   3.805   3.052   0.067
  361SOL    HW1 1124   3.800   2.966   0.021
  361SOL    HW2 1125   3.795   3.115  -0.007
  362SOL     OW 1126   5.564   0.348   2.282
  362SOL    HW1 1127   5.636   0.282   2.274
  362SOL    HW2 1128   5.587   0.391   2.367
  363SOL     OW 1129   4.853   0.741   2.600
  363SOL    HW1 1130   4.915   0.812   2.575
  363SOL    HW2 1131   4.815   0.719   2.513
  364SOL     OW 1132   3.978   3.069   0.293
  364SOL    HW1 1133   3.954   3.157   0.328
  364SOL    HW2 1134   3.931   3.068   0.207
  365SOL     OW 1135   5.202   1.361   2.003
  365SOL    HW1 1136   5.164   1.336   2.090
  365SOL    HW2 1137   5.168   1.451   1.993
  366SOL     OW 1138   5.038   1.728   2.826
  366SOL    HW1 1139   5.018   1.817   2.795
  366SOL    HW2 1140   5.135   1.723   2.816
  367SOL     OW 1141   5.213   0.988   2.694
  367SOL    HW1 1142   5.255   0.910   2.734
  367SOL    HW2 1143   5.168   1.029   2.770
  368SOL     OW 1144   5.356   0.906   1.935
  368SOL    HW1 1145   5.347   0.988   1.883
  368SOL    HW2 1146   5.449   0.882   1.920
  369SOL     OW 1147   6.143   1.615   2.674
  369SOL    HW1 1148   6.071   1.588   2.615
  369SOL    HW2 1149   6.126   1.557   2.751
  370SOL     OW 1150   4.432   1.366   2.474
  370SOL    HW1 1151   4.358   1.368   2.536
  370SOL    HW2 1152   4.438   1.270   2.455
  371SOL     OW 1153   3.925   2.350   0.031
  371SOL    HW1 1154   3.863   2.275   0.024
  371SOL    HW2 1155   3.958   2.356  -0.061
  372SOL     OW 1156   4.797   0.407   2.403
  372SOL    HW1 1157   4.841   0.333   2.361
  372SOL    HW2 1158   4.747   0.365   2.476
  373SOL     OW 1159   6.053   1.470   2.888
  373SOL    HW1 1160   5.973   1.431   2.848
  373SOL    HW2 1161   6.084   1.400   2.948
  374SOL     OW 1162   2.559   2.735   0.139
  374SOL    HW1 1163   2.648   2.694   0.138
  374SOL    HW2 1164   2.524   2.699   0.055
  375SOL     OW 1165   5.191   1.619   2.519
  375SOL    HW1 1166   5.189   1.705   2.473
  375SOL    HW2 1167   5.109   1.577   2.489
  376SOL     OW 1168   5.768   0.275   2.951
  376SOL    HW1 1169   5.790   0.187   2.982
  376SOL    HW2 1170   5.728   0.315   3.031
  377SOL     OW 1171   5.272   0.076   3.024
  377SOL    HW1 1172   5.193   0.065   2.968
  377SOL    HW2 1173   5.312  -0.013   3.019
  378SOL     OW 1174   5.104   1.304   2.250
  378SOL    HW1 1175   5.080   1.209   2.256
  378SOL    HW2 1176   5.188   1.309   2.298
  379SOL     OW 1177   2.802   3.723   0.085
  379SOL    HW1 1178   2.796   3.818   0.102
  379SOL    HW2 1179   2.892   3.716   0.049
  380SOL     OW 1180   1.425   0.032   1.897
  380SOL    HW1 1181   1.492   0.020   1.967
  380SOL    HW2 1182   1.342   0.024   1.946
  381SOL     OW 1183   5.618   0.473   2.521
  381SOL    HW1 1184   5.561   0.552   2.518
  381SOL    HW2 1185   5.610   0.448   2.616
  382SOL     OW 1186   5.934   0.293   2.731
  382SOL    HW1 1187   5.873   0.299   2.807
  382SOL    HW2 1188   5.920   0.377   2.684
  383SOL     OW 1189   4.385   1.020   2.213
  383SOL    HW1 1190   4.474   0.994   2.183
  383SOL    HW2 1191   4.401   1.042   2.307
  384SOL     OW 1192   5.258   1.670   2.190
  384SOL    HW1 1193   5.177   1.653   2.138
  384SOL    HW2 1194   5.231   1.740   2.251
  385SOL     OW 1195   0.251   2.628   0.110
  385SOL    HW1 1196   0.256   2.539   0.150
  385SOL    HW2 1197   0.305   2.618   0.030
  386SOL     OW 1198   4.538   2.127   1.031
  386SOL    HW1 1199   4.583   2.088   1.108
  386SOL    HW2 1200   4.445   2.112   1.054
  387SOL     OW 1201   4.310   2.188   0.739
  387SOL    HW1 1202   4.270   2.273   0.766
  387SOL    HW2 1203   4.275   2.173   0.649
  388SOL     OW 1204   4.835   3.090   1.223
  388SOL    HW1 1205   4.783   3.150   1.168
  388SOL    HW2 1206   4.813   3.119   1.313
  389SOL     OW 1207   1.575   3.354   0.724
  389SOL    HW1 1208   1.523   3.324   0.802
  389SOL    HW2 1209   1.505   3.355   0.656
  390SOL     OW 1210   1.145   2.569   0.679
  390SOL    HW1 1211   1.187   2.657   0.667
  390SOL    HW2 1212   1.098   2.582   0.763
  391SOL     OW 1213   1.736   2.527   0.233
  391SOL    HW1 1214   1.659   2.585   0.238
  391SOL    HW2 1215   1.700   2.442   0.266
  392SOL     OW 1216   5.039   2.970   1.099
  392SOL    HW1 1217   4.961   3.007   1.146
  392SOL    HW2 1218   5.072   3.051   1.055
  393SOL     OW 1219   5.247   2.576   1.776
  393SOL    HW1 1220   5.271   2.641   1.844
  393SOL    HW2 1221   5.249   2.632   1.696
  394SOL     OW 1222   0.705   2.822   0.674
  394SOL    HW1 1223   0.768   2.834   0.748
  394SOL    HW2 1224   0.630   2.878   0.702
  395SOL     OW 1225   5.093   3.021   1.868
  395SOL    HW1 1226   5.155   3.074   1.921
  395SOL    HW2 1227   5.064   3.087   1.802
  396SOL     OW 1228   4.684   3.252   1.054
  396SOL    HW1 1229   4.641   3.194   0.991
  396SOL    HW2 1230   4.734   3.312   0.995
  397SOL     OW 1231   1.437   3.494   1.379
  397SOL    HW1 1232   1.513   3.503   1.438
  397SOL    HW2 1233   1.367   3.466   1.442
  398SOL     OW 1234   4.796   2.238   1.470
  398SOL    HW1 1235   4.856   2.225   1.544
  398SOL    HW2 1236   4.720   2.182   1.495
  399SOL     OW 1237   1.565   2.306   0.749
  399SOL    HW1 1238   1.485   2.307   0.693
  399SOL    HW2 1239   1.551   2.386   0.801
  400SOL     OW 1240   4.503   3.574   0.472
  400SOL    HW1 1241   4.456   3.652   0.507
  400SOL    HW2 1242   4.586   3.612   0.442
  401SOL     OW 1243   5.487   3.184   1.703
  401SOL    HW1 1244   5.543   3.154   1.776
  401SOL    HW2 1245   5.429   3.107   1.691
  402SOL     OW 1246   4.607   3.326   0.487
  402SOL    HW1 1247   4.568   3.415   0.488
  402SOL    HW2 1248   4.555   3.279   0.555
  403SOL     OW 1249   4.597   2.888   0.866
  403SOL    HW1 1250   4.616   2.797   0.896
  403SOL    HW2 1251   4.532   2.919   0.932
  404SOL     OW 1252   4.895   3.742   1.360
  404SOL    HW1 1253   4.826   3.709   1.422
  404SOL    HW2 1254   4.949   3.799   1.419
  405SOL     OW 1255   0.572   2.836   0.257
  405SOL    HW1 1256   0.608   2.869   0.173
  405SOL    HW2 1257   0.634   2.876   0.322
  406SOL     OW 1258   1.684   1.951   1.531
  406SOL    HW1 1259   1.713   2.033   1.487
  406SOL    HW2 1260   1.617   1.985   1.593
  407SOL     OW 1261   4.458   2.438   0.491
  407SOL    HW1 1262   4.363   2.423   0.474
  407SOL    HW2 1263   4.455   2.477   0.580
  408SOL     OW 1264   1.844   3.539   0.295
  408SOL    HW1 1265   1.906   3.558   0.368
  408SOL    HW2 1266   1.862   3.614   0.236
  409SOL     OW 1267   4.207   3.364   0.131
  409SOL    HW1 1268   4.232   3.296   0.196
  409SOL    HW2 1269   4.267   3.437   0.154
  410SOL     OW 1270   1.723   2.766   0.696
  410SOL    HW1 1271   1.808   2.719   0.689
  410SOL    HW2 1272   1.719   2.814   0.611
  411SOL     OW 1273   1.718   2.908   0.465
  411SOL    HW1 1274   1.809   2.916   0.429
  411SOL    HW2 1275   1.708   2.996   0.507
  412SOL     OW 1276   4.449   2.679   1.555
  412SOL    HW1 1277   4.474   2.716   1.468
  412SOL    HW2 1278   4.468   2.756   1.612
  413SOL     OW 1279   0.618   3.214   0.728
  413SOL    HW1 1280   0.579   3.125   0.739
  413SOL    HW2 1281   0.595   3.232   0.634
  414SOL     OW 1282   1.441   3.061   1.359
  414SOL    HW1 1283   1.369   3.009   1.318
  414SOL    HW2 1284   1.429   3.046   1.454
  415SOL     OW 1285   0.828   1.886   0.521
  415SOL    HW1 1286   0.862   1.969   0.480
  415SOL    HW2 1287   0.731   1.902   0.520
  416SOL     OW 1288   4.521   2.781   1.309
  416SOL    HW1 1289   4.614   2.751   1.297
  416SOL    HW2 1290   4.491   2.786   1.218
  417SOL     OW 1291   1.577   2.792   0.264
  417SOL    HW1 1292   1.498   2.753   0.307
  417SOL    HW2 1293   1.625   2.831   0.340
  418SOL     OW 1294   1.262   3.755   1.664
  418SOL    HW1 1295   1.233   3.790   1.579
  418SOL    HW2 1296   1.259   3.659   1.650
  419SOL     OW 1297   4.783   2.176   1.800
  419SOL    HW1 1298   4.805   2.238   1.871
  419SOL    HW2 1299   4.690   2.199   1.781
  420SOL     OW 1300   1.441   3.276   0.951
  420SOL    HW1 1301   1.379   3.296   1.024
  420SOL    HW2 1302   1.418   3.183   0.931
  421SOL     OW 1303   1.626   3.613   0.607
  421SOL    HW1 1304   1.615   3.571   0.520
  421SOL    HW2 1305   1.613   3.538   0.666
  422SOL     OW 1306   0.611   2.577   0.347
  422SOL    HW1 1307   0.600   2.669   0.317
  422SOL    HW2 1308   0.545   2.569   0.418
  423SOL     OW 1309   1.276   2.291   0.949
  423SOL    HW1 1310   1.189   2.249   0.955
  423SOL    HW2 1311   1.330   2.232   1.004
  424SOL     OW 1312   1.585   3.497   0.364
  424SOL    HW1 1313   1.680   3.505   0.343
  424SOL    HW2 1314   1.549   3.477   0.276
  425SOL     OW 1315   5.145   2.458   1.417
  425SOL    HW1 1316   5.108   2.422   1.500
  425SOL    HW2 1317   5.113   2.394   1.350
  426SOL     OW 1318   1.370   2.324   1.657
  426SOL    HW1 1319   1.380   2.368   1.744
  426SOL    HW2 1320   1.427   2.247   1.666
  427SOL     OW 1321   5.276   2.761   1.559
  427SOL    HW1 1322   5.329   2.700   1.503
  427SOL    HW2 1323   5.229   2.812   1.491
  428SOL     OW 1324   1.007   2.251   1.195
  428SOL    HW1 1325   0.913   2.269   1.213
  428SOL    HW2 1326   1.004   2.216   1.105
  429SOL     OW 1327   1.096   2.555   0.412
  429SOL    HW1 1328   1.108   2.556   0.510
  429SOL    HW2 1329   1.007   2.515   0.404
  430SOL     OW 1330   4.451   2.575   0.730
  430SOL    HW1 1331   4.524   2.589   0.792
  430SOL    HW2 1332   4.437   2.666   0.695
  431SOL     OW 1333   4.500   3.790   1.686
  431SOL    HW1 1334   4.507   3.710   1.741
  431SOL    HW2 1335   4.404   3.809   1.695
  432SOL     OW 1336   0.903   2.269   0.159
  432SOL    HW1 1337   0.964   2.325   0.107
  432SOL    HW2 1338   0.916   2.182   0.118
  433SOL     OW 1339   1.669   2.444   1.859
  433SOL    HW1 1340   1.658   2.522   1.801
  433SOL    HW2 1341   1.698   2.375   1.796
  434SOL     OW 1342   1.364   3.052   0.607
  434SOL    HW1 1343   1.431   3.073   0.539
  434SOL    HW2 1344   1.289   3.104   0.573
  435SOL     OW 1345   4.883   2.007   0.959
  435SOL    HW1 1346   4.890   2.032   1.053
  435SOL    HW2 1347   4.877   2.095   0.917
  436SOL     OW 1348   0.959   3.343   0.475
  436SOL    HW1 1349   0.934   3.419   0.421
  436SOL    HW2 1350   0.908   3.361   0.557
  437SOL     OW 1351   4.655   3.634   0.866
  437SOL    HW1 1352   4.704   3.550   0.870
  437SOL    HW2 1353   4.722   3.699   0.895
  438SOL     OW 1354   1.813   2.884   0.929
  438SOL    HW1 1355   1.771   2.857   0.845
  438SOL    HW2 1356   1.734   2.905   0.983
  439SOL     OW 1357   1.241   3.404   1.542
  439SOL    HW1 1358   1.229   3.325   1.598
  439SOL    HW2 1359   1.170   3.390   1.476
  440SOL     OW 1360   0.303   2.829   0.283
  440SOL    HW1 1361   0.400   2.832   0.275
  440SOL    HW2 1362   0.282   2.749   0.230
  441SOL     OW 1363   1.484   2.642   0.691
  441SOL    HW1 1364   1.469   2.605   0.780
  441SOL    HW2 1365   1.570   2.687   0.701
  442SOL     OW 1366   4.795   3.199   1.718
  442SOL    HW1 1367   4.772   3.199   1.623
  442SOL    HW2 1368   4.716   3.157   1.757
  443SOL     OW 1369   1.123   3.657   0.235
  443SOL    HW1 1370   1.038   3.623   0.266
  443SOL    HW2 1371   1.184   3.620   0.299
  444SOL     OW 1372   4.573   2.093   1.535
  444SOL    HW1 1373   4.546   2.154   1.606
  444SOL    HW2 1374   4.531   2.010   1.566
  445SOL     OW 1375   1.663   3.219   0.165
  445SOL    HW1 1376   1.619   3.302   0.138
  445SOL    HW2 1377   1.598   3.152   0.138
  446SOL     OW 1378   0.438   3.619   0.331
  446SOL    HW1 1379   0.489   3.658   0.404
  446SOL    HW2 1380   0.508   3.571   0.283
  447SOL     OW 1381   1.392   1.958   0.479
  447SOL    HW1 1382   1.404   1.950   0.382
  447SOL    HW2 1383   1.480   1.928   0.510
  448SOL     OW 1384   4.500   3.665   1.215
  448SOL    HW1 1385   4.551   3.585   1.236
  448SOL    HW2 1386   4.455   3.639   1.132
  449SOL     OW 1387   0.903   3.565   0.891
  449SOL    HW1 1388   0.882   3.522   0.976
  449SOL    HW2 1389   0.933   3.490   0.837
  450SOL     OW 1390   0.413   2.521   0.526
  450SOL    HW1 1391   0.428   2.429   0.557
  450SOL    HW2 1392   0.319   2.518   0.507
  451SOL     OW 1393   1.502   2.073   1.706
  451SOL    HW1 1394   1.512   2.086   1.803
  451SOL    HW2 1395   1.426   2.012   1.702
  452SOL     OW 1396   0.642   2.007   0.141
  452SOL    HW1 1397   0.738   2.001   0.128
  452SOL    HW2 1398   0.613   2.029   0.050
  453SOL     OW 1399   5.092   2.123   1.685
  453SOL    HW1 1400   5.171   2.074   1.715
  453SOL    HW2 1401   5.029   2.103   1.755
  454SOL     OW 1402   0.821   3.435   1.121
  454SOL    HW1 1403   0.795   3.351   1.079
  454SOL    HW2 1404   0.880   3.402   1.192
  455SOL     OW 1405   1.291   2.451   1.427
  455SOL    HW1 1406   1.327   2.419   1.512
  455SOL    HW2 1407   1.327   2.542   1.420
  456SOL     OW 1408   0.780   3.204   0.966
  456SOL    HW1 1409   0.874   3.205   0.938
  456SOL    HW2 1410   0.733   3.204   0.881
  457SOL     OW 1411   0.924   2.386   0.877
  457SOL    HW1 1412   0.903   2.370   0.782
  457SOL    HW2 1413   0.956   2.299   0.904
  458SOL     OW 1414   0.562   1.919   0.508
  458SOL    HW1 1415   0.480   1.917   0.562
  458SOL    HW2 1416   0.554   2.006   0.464
  459SOL     OW 1417   1.481   3.018   0.134
  459SOL    HW1 1418   1.514   2.937   0.176
  459SOL    HW2 1419   1.444   2.985   0.051
  460SOL     OW 1420   0.363   1.981   0.183
  460SOL    HW1 1421   0.458   1.996   0.165
  460SOL    HW2 1422   0.366   1.891   0.218
  461SOL     OW 1423   0.943   2.115   0.424
  461SOL    HW1 1424   0.931   2.174   0.348
  461SOL    HW2 1425   1.036   2.132   0.451
  462SOL     OW 1426   1.052   2.581   1.389
  462SOL    HW1 1427   0.975   2.520   1.398
  462SOL    HW2 1428   1.128   2.521   1.400
  463SOL     OW 1429   1.161   3.446   0.807
  463SOL    HW1 1430   1.203   3.499   0.737
  463SOL    HW2 1431   1.178   3.500   0.886
  464SOL     OW 1432   4.820   2.978   0.736
  464SOL    HW1 1433   4.747   2.947   0.793
  464SOL    HW2 1434   4.775   2.985   0.649
  465SOL     OW 1435   1.255   3.648   0.616
  465SOL    HW1 1436   1.294   3.719   0.561
  465SOL    HW2 1437   1.180   3.694   0.659
  466SOL     OW 1438   1.048   2.453   0.008
  466SOL    HW1 1439   1.039   2.547   0.032
  466SOL    HW2 1440   1.145   2.440   0.017
  467SOL     OW 1441   4.440   2.477   1.353
  467SOL    HW1 1442   4.533   2.451   1.338
  467SOL    HW2 1443   4.445   2.519   1.440
  468SOL     OW 1444   4.896   2.081   1.219
  468SOL    HW1 1445   4.941   2.049   1.299
  468SOL    HW2 1446   4.802   2.070   1.244
  469SOL     OW 1447   0.881   2.314   0.621
  469SOL    HW1 1448   0.859   2.375   0.549
  469SOL    HW2 1449   0.888   2.230   0.573
  470SOL     OW 1450   1.007   1.942   0.736
  470SOL    HW1 1451   0.947   1.935   0.660
  470SOL    HW2 1452   0.974   1.872   0.794
  471SOL     OW 1453   1.395   3.014   0.884
  471SOL    HW1 1454   1.338   2.937   0.903
  471SOL    HW2 1455   1.382   3.025   0.788
  472SOL     OW 1456   1.436   2.522   0.931
  472SOL    HW1 1457   1.375   2.449   0.950
  472SOL    HW2 1458   1.500   2.515   1.005
  473SOL     OW 1459   1.925   2.668   0.382
  473SOL    HW1 1460   1.928   2.609   0.460
  473SOL    HW2 1461   1.861   2.624   0.326
  474SOL     OW 1462   0.531   3.271   0.145
  474SOL    HW1 1463   0.458   3.225   0.191
  474SOL    HW2 1464   0.504   3.260   0.052
  475SOL     OW 1465   1.750   3.141   0.596
  475SOL    HW1 1466   1.841   3.145   0.629
  475SOL    HW2 1467   1.704   3.211   0.644
  476SOL     OW 1468   1.325   2.435   0.026
  476SOL    HW1 1469   1.348   2.368   0.093
  476SOL    HW2 1470   1.382   2.409  -0.049
  477SOL     OW 1471   0.559   2.146   0.364
  477SOL    HW1 1472   0.596   2.093   0.291
  477SOL    HW2 1473   0.546   2.231   0.318
  478SOL     OW 1474   1.747   3.071   1.550
  478SOL    HW1 1475   1.841   3.047   1.545
  478SOL    HW2 1476   1.755   3.166   1.569
  479SOL     OW 1477   1.626   3.501   1.685
  479SOL    HW1 1478   1.649   3.565   1.616
  479SOL    HW2 1479   1.686   3.428   1.664
  480SOL     OW 1480   1.078   3.091   1.150
  480SOL    HW1 1481   1.054   3.161   1.213
  480SOL    HW2 1482   1.067   3.136   1.065
  481SOL     OW 1483   1.592   2.956   1.065
  481SOL    HW1 1484   1.598   3.039   1.115
  481SOL    HW2 1485   1.519   2.975   1.003
  482SOL     OW 1486   5.285   1.906   1.349
  482SOL    HW1 1487   5.310   1.911   1.255
  482SOL    HW2 1488   5.358   1.956   1.391
  483SOL     OW 1489   5.331   2.958   1.737
  483SOL    HW1 1490   5.241   2.977   1.766
  483SOL    HW2 1491   5.317   2.892   1.666
  484SOL     OW 1492   0.765   2.918   0.424
  484SOL    HW1 1493   0.752   2.881   0.514
  484SOL    HW2 1494   0.840   2.864   0.390
  485SOL     OW 1495   4.766   2.679   1.273
  485SOL    HW1 1496   4.842   2.686   1.335
  485SOL    HW2 1497   4.745   2.583   1.281
  486SOL     OW 1498   1.253   2.220   1.294
  486SOL    HW1 1499   1.271   2.306   1.339
  486SOL    HW2 1500   1.163   2.236   1.259
  487SOL     OW 1501   4.375   3.395   1.356
  487SOL    HW1 1502   4.370   3.462   1.425
  487SOL    HW2 1503   4.468   3.405   1.326
  488SOL     OW 1504   0.357   2.997   0.504
  488SOL    HW1 1505   0.364   3.064   0.434
  488SOL    HW2 1506   0.335   2.919   0.452
  489SOL     OW 1507   4.867   2.272   0.872
  489SOL    HW1 1508   4.858   2.290   0.777
  489SOL    HW2 1509   4.927   2.344   0.902
  490SOL     OW 1510   1.203   3.228   0.465
  490SOL    HW1 1511   1.266   3.296   0.495
  490SOL    HW2 1512   1.116   3.268   0.485
  491SOL     OW 1513   1.296   3.353   1.174
  491SOL    HW1 1514   1.354   3.378   1.248
  491SOL    HW2 1515   1.213   3.332   1.221
  492SOL     OW 1516   1.496   2.485   0.467
  492SOL    HW1 1517   1.493   2.535   0.550
  492SOL    HW2 1518   1.438   2.539   0.410
  493SOL     OW 1519   4.632   3.419   1.262
  493SOL    HW1 1520   4.639   3.353   1.190
  493SOL    HW2 1521   4.724   3.453   1.262
  494SOL     OW 1522   4.848   2.574   1.646
  494SOL    HW1 1523   4.888   2.619   1.569
  494SOL    HW2 1524   4.914   2.504   1.662
  495SOL     OW 1525   1.632   2.663   1.707
  495SOL    HW1 1526   1.539   2.690   1.697
  495SOL    HW2 1527   1.671   2.702   1.627
  496SOL     OW 1528   5.312   1.987   1.776
  496SOL    HW1 1529   5.370   2.061   1.748
  496SOL    HW2 1530   5.376   1.915   1.783
  497SOL     OW 1531   4.844   1.916   1.813
  497SOL    HW1 1532   4.804   1.868   1.737
  497SOL    HW2 1533   4.814   2.008   1.797
  498SOL     OW 1534   4.901   2.722   1.037
  498SOL    HW1 1535   4.948   2.806   1.048
  498SOL    HW2 1536   4.853   2.714   1.121
  499SOL     OW 1537   1.282   2.764   0.975
  499SOL    HW1 1538   1.195   2.725   0.956
  499SOL    HW2 1539   1.341   2.688   0.962
  500SOL     OW 1540   1.211   2.334   0.289
  500SOL    HW1 1541   1.225   2.285   0.372
  500SOL    HW2 1542   1.179   2.420   0.321
  501SOL     OW 1543   4.630   2.032   1.271
  501SOL    HW1 1544   4.605   2.058   1.362
  501SOL    HW2 1545   4.599   1.939   1.268
  502SOL     OW 1546   4.388   3.146   1.234
  502SOL    HW1 1547   4.424   3.099   1.312
  502SOL    HW2 1548   4.373   3.235   1.271
  503SOL     OW 1549   5.015   2.461   1.008
  503SOL    HW1 1550   5.095   2.462   0.953
  503SOL    HW2 1551   4.982   2.553   0.999
  504SOL     OW 1552   1.780   2.828   1.873
  504SOL    HW1 1553   1.728   2.763   1.823
  504SOL    HW2 1554   1.717   2.855   1.943
  505SOL     OW 1555   4.654   1.909   0.638
  505SOL    HW1 1556   4.618   1.995   0.667
  505SOL    HW2 1557   4.666   1.864   0.724
  506SOL     OW 1558   1.634   2.294   0.337
  506SOL    HW1 1559   1.672   2.227   0.396
  506SOL    HW2 1560   1.582   2.350   0.398
  507SOL     OW 1561   1.040   2.625   0.933
  507SOL    HW1 1562   1.016   2.649   1.026
  507SOL    HW2 1563   0.997   2.537   0.924
  508SOL     OW 1564   5.347   3.403   1.784
  508SOL    HW1 1565   5.316   3.457   1.709
  508SOL    HW2 1566   5.382   3.324   1.738
  509SOL     OW 1567   1.823   3.333   1.589
  509SOL    HW1 1568   1.852   3.363   1.500
  509SOL    HW2 1569   1.902   3.352   1.641
  510SOL     OW 1570   4.764   2.795   1.788
  510SOL    HW1 1571   4.821   2.807   1.865
  510SOL    HW2 1572   4.803   2.716   1.745
  511SOL     OW 1573   1.488   2.198   0.128
  511SOL    HW1 1574   1.477   2.109   0.164
  511SOL    HW2 1575   1.544   2.240   0.197
  512SOL     OW 1576   1.325   2.703   0.043
  512SOL    HW1 1577   1.326   2.606   0.029
  512SOL    HW2 1578   1.413   2.728   0.011
  513SOL     OW 1579   1.041   3.217   0.899
  513SOL    HW1 1580   1.067   3.141   0.842
  513SOL    HW2 1581   1.092   3.290   0.859
  514SOL     OW 1582   4.657   2.628   0.923
  514SOL    HW1 1583   4.752   2.651   0.933
  514SOL    HW2 1584   4.656   2.538   0.960
  515SOL     OW 1585   4.657   2.365   1.019
  515SOL    HW1 1586   4.609   2.280   1.021
  515SOL    HW2 1587   4.736   2.339   0.967
  516SOL     OW 1588   5.455   2.204   1.684
  516SOL    HW1 1589   5.414   2.258   1.755
  516SOL    HW2 1590   5.539   2.252   1.671
  517SOL     OW 1591   1.155   2.039   1.471
  517SOL    HW1 1592   1.134   2.103   1.543
  517SOL    HW2 1593   1.199   2.097   1.406
  518SOL     OW 1594   4.262   3.177   0.332
  518SOL    HW1 1595   4.175   3.135   0.326
  518SOL    HW2 1596   4.319   3.101   0.355
  519SOL     OW 1597   4.406   3.590   0.964
  519SOL    HW1 1598   4.397   3.502   0.926
  519SOL    HW2 1599   4.491   3.620   0.924
  520SOL     OW 1600   4.812   3.406   0.870
  520SOL    HW1 1601   4.878   3.477   0.856
  520SOL    HW2 1602   4.852   3.334   0.818
  521SOL     OW 1603   0.967   2.716   1.172
  521SOL    HW1 1604   1.007   2.666   1.245
  521SOL    HW2 1605   0.924   2.788   1.220
  522SOL     OW 1606   4.391   2.441   1.085
  522SOL    HW1 1607   4.483   2.424   1.061
  522SOL    HW2 1608   4.398   2.457   1.181
  523SOL     OW 1609   4.593   2.512   1.726
  523SOL    HW1 1610   4.685   2.529   1.699
  523SOL    HW2 1611   4.543   2.573   1.669
  524SOL     OW 1612   1.386   2.765   1.653
  524SOL    HW1 1613   1.413   2.859   1.646
  524SOL    HW2 1614   1.368   2.744   1.559
  525SOL     OW 1615   0.852   2.443   0.376
  525SOL    HW1 1616   0.853   2.389   0.295
  525SOL    HW2 1617   0.769   2.495   0.366
  526SOL     OW 1618   1.625   2.499   1.126
  526SOL    HW1 1619   1.612   2.433   1.195
  526SOL    HW2 1620   1.721   2.492   1.110
  527SOL     OW 1621   4.557   3.447   1.619
  527SOL    HW1 1622   4.544   3.487   1.707
  527SOL    HW2 1623   4.503   3.366   1.626
  528SOL     OW 1624   5.069   2.295   1.215
  528SOL    HW1 1625   5.003   2.224   1.211
  528SOL    HW2 1626   5.041   2.354   1.142
  529SOL     OW 1627   5.255   3.545   1.554
  529SOL    HW1 1628   5.281   3.483   1.483
  529SOL    HW2 1629   5.258   3.630   1.508
  530SOL     OW 1630   0.524   2.367   0.205
  530SOL    HW1 1631   0.558   2.446   0.252
  530SOL    HW2 1632   0.427   2.377   0.215
  531SOL     OW 1633   4.507   3.018   1.442
  531SOL    HW1 1634   4.508   2.986   1.534
  531SOL    HW2 1635   4.515   2.934   1.393
  532SOL     OW 1636   1.257   2.900   1.220
  532SOL    HW1 1637   1.265   2.856   1.133
  532SOL    HW2 1638   1.187   2.966   1.201
  533SOL     OW 1639   1.341   2.656   0.319
  533SOL    HW1 1640   1.252   2.636   0.353
  533SOL    HW2 1641   1.323   2.676   0.225
  534SOL     OW 1642   1.802   3.595   1.196
  534SOL    HW1 1643   1.855   3.621   1.118
  534SOL    HW2 1644   1.743   3.529   1.156
  535SOL     OW 1645   1.213   3.577   1.047
  535SOL    HW1 1646   1.295   3.624   1.069
  535SOL    HW2 1647   1.230   3.491   1.089
  536SOL     OW 1648   4.393   2.987   1.020
  536SOL    HW1 1649   4.393   3.045   1.099
  536SOL    HW2 1650   4.343   3.040   0.957
  537SOL     OW 1651   5.055   3.513   1.731
  537SOL    HW1 1652   4.998   3.591   1.720
  537SOL    HW2 1653   5.125   3.529   1.664
  538SOL     OW 1654   0.908   2.007   0.056
  538SOL    HW1 1655   0.923   1.989  -0.038
  538SOL    HW2 1656   0.969   1.944   0.098
  539SOL     OW 1657   1.761   2.085   0.474
  539SOL    HW1 1658   1.822   2.051   0.406
  539SOL    HW2 1659   1.717   2.002   0.503
  540SOL     OW 1660   1.382   3.421   0.536
  540SOL    HW1 1661   1.447   3.447   0.468
  540SOL    HW2 1662   1.342   3.506   0.563
  541SOL     OW 1663   4.503   3.578   1.855
  541SOL    HW1 1664   4.452   3.504   1.894
  541SOL    HW2 1665   4.533   3.625   1.934
  542SOL     OW 1666   1.269   2.804   0.648
  542SOL    HW1 1667   1.351   2.751   0.656
  542SOL    HW2 1668   1.305   2.891   0.622
  543SOL     OW 1669   5.187   3.116   1.474
  543SOL    HW1 1670   5.145   3.162   1.549
  543SOL    HW2 1671   5.240   3.187   1.434
  544SOL     OW 1672   0.648   3.507   0.179
  544SOL    HW1 1673   0.673   3.513   0.087
  544SOL    HW2 1674   0.608   3.418   0.182
  545SOL     OW 1675   1.698   3.645   1.457
  545SOL    HW1 1676   1.722   3.630   1.365
  545SOL    HW2 1677   1.641   3.725   1.451
  546SOL     OW 1678   1.856   2.019   0.968
  546SOL    HW1 1679   1.876   1.930   0.935
  546SOL    HW2 1680   1.767   2.037   0.931
  547SOL     OW 1681   4.576   2.140   0.751
  547SOL    HW1 1682   4.483   2.165   0.738
  547SOL    HW2 1683   4.579   2.132   0.848
  548SOL     OW 1684   1.263   3.394   0.004
  548SOL    HW1 1685   1.237   3.325   0.068
  548SOL    HW2 1686   1.188   3.455   0.010
  549SOL     OW 1687   5.147   2.887   1.343
  549SOL    HW1 1688   5.109   2.920   1.259
  549SOL    HW2 1689   5.162   2.972   1.390
  550SOL     OW 1690   0.960   2.774   0.307
  550SOL    HW1 1691   0.984   2.762   0.213
  550SOL    HW2 1692   1.014   2.706   0.350
  551SOL     OW 1693   1.516   3.447   0.106
  551SOL    HW1 1694   1.431   3.433   0.060
  551SOL    HW2 1695   1.549   3.529   0.065
  552SOL     OW 1696   4.712   3.197   1.455
  552SOL    HW1 1697   4.675   3.282   1.427
  552SOL    HW2 1698   4.635   3.137   1.450
  553SOL     OW 1699   1.639   3.179   1.225
  553SOL    HW1 1700   1.719   3.150   1.270
  553SOL    HW2 1701   1.567   3.145   1.283
  554SOL     OW 1702   1.083   2.987   0.763
  554SOL    HW1 1703   1.007   2.939   0.798
  554SOL    HW2 1704   1.135   2.918   0.719
  555SOL     OW 1705   1.041   2.130   0.944
  555SOL    HW1 1706   1.032   2.086   0.858
  555SOL    HW2 1707   1.044   2.052   1.003
  556SOL     OW 1708   0.547   3.278   0.478
  556SOL    HW1 1709   0.564   3.260   0.385
  556SOL    HW2 1710   0.452   3.302   0.478
  557SOL     OW 1711   1.791   2.194   1.432
  557SOL    HW1 1712   1.854   2.266   1.411
  557SOL    HW2 1713   1.802   2.136   1.354
  558SOL     OW 1714   0.325   3.163   0.278
  558SOL    HW1 1715   0.249   3.136   0.224
  558SOL    HW2 1716   0.287   3.228   0.341
  559SOL     OW 1717   4.538   2.899   1.689
  559SOL    HW1 1718   4.531   2.975   1.748
  559SOL    HW2 1719   4.622   2.859   1.723
  560SOL     OW 1720   5.042   1.997   1.439
  560SOL    HW1 1721   5.129   1.970   1.406
  560SOL    HW2 1722   5.064   2.052   1.516
  561SOL     OW 1723   6.485   0.114   3.048
  561SOL    HW1 1724   6.466   0.035   2.993
  561SOL    HW2 1725   6.577   0.095   3.076
  562SOL     OW 1726   1.370   2.713   1.387
  562SOL    HW1 1727   1.313   2.773   1.336
  562SOL    HW2 1728   1.456   2.726   1.342
  563SOL     OW 1729   4.455   2.056   0.322
  563SOL    HW1 1730   4.420   2.014   0.241
  563SOL    HW2 1731   4.550   2.046   0.307
  564SOL     OW 1732   1.150   3.230   0.197
  564SOL    HW1 1733   1.104   3.146   0.190
  564SOL    HW2 1734   1.182   3.227   0.289
  565SOL     OW 1735   4.985   2.680   1.429
  565SOL    HW1 1736   5.037   2.758   1.406
  565SOL    HW2 1737   5.050   2.608   1.419
  566SOL     OW 1738   1.467   3.640   1.148
  566SOL    HW1 1739   1.529   3.575   1.112
  566SOL    HW2 1740   1.449   3.601   1.236
  567SOL     OW 1741   5.057   2.397   1.668
  567SOL    HW1 1742   5.124   2.444   1.721
  567SOL    HW2 1743   5.078   2.303   1.684
  568SOL     OW 1744   1.488   3.015   1.633
  568SOL    HW1 1745   1.482   3.053   1.723
  568SOL    HW2 1746   1.580   3.038   1.608
  569SOL     OW 1747   4.709   3.658   1.542
  569SOL    HW1 1748   4.633   3.710   1.570
  569SOL    HW2 1749   4.673   3.567   1.552
  570SOL     OW 1750   1.602   2.751   1.248
  570SOL    HW1 1751   1.614   2.671   1.194
  570SOL    HW2 1752   1.597   2.822   1.181
  571SOL     OW 1753   1.204   2.155   0.495
  571SOL    HW1 1754   1.274   2.087   0.494
  571SOL    HW2 1755   1.233   2.213   0.568
  572SOL     OW 1756   0.593   2.572   0.735
  572SOL    HW1 1757   0.639   2.654   0.712
  572SOL    HW2 1758   0.527   2.564   0.665
  573SOL     OW 1759   1.742   2.240   1.693
  573SOL    HW1 1760   1.756   2.230   1.597
  573SOL    HW2 1761   1.667   2.180   1.708
  574SOL     OW 1762   1.727   2.793   1.488
  574SOL    HW1 1763   1.719   2.889   1.502
  574SOL    HW2 1764   1.683   2.781   1.401
  575SOL     OW 1765   0.890   3.133   0.038
  575SOL    HW1 1766   0.868   3.126   0.133
  575SOL    HW2 1767   0.890   3.228   0.026
  576SOL     OW 1768   0.648   3.609   0.814
  576SOL    HW1 1769   0.610   3.695   0.840
  576SOL    HW2 1770   0.738   3.615   0.850
  577SOL     OW 1771   0.876   2.851   0.885
  577SOL    HW1 1772   0.927   2.773   0.911
  577SOL    HW2 1773   0.836   2.880   0.969
  578SOL     OW 1774   1.051   2.727   0.051
  578SOL    HW1 1775   1.015   2.791  -0.014
  578SOL    HW2 1776   1.147   2.737   0.040
  579SOL     OW 1777   1.821   3.406   0.826
  579SOL    HW1 1778   1.735   3.393   0.782
  579SOL    HW2 1779   1.801   3.376   0.915
  580SOL     OW 1780   4.561   3.127   1.840
  580SOL    HW1 1781   4.494   3.192   1.812
  580SOL    HW2 1782   4.571   3.146   1.935
  581SOL     OW 1783   4.472   3.157   0.649
  581SOL    HW1 1784   4.383   3.119   0.664
  581SOL    HW2 1785   4.519   3.084   0.607
  582SOL     OW 1786   5.059   3.237   1.694
  582SOL    HW1 1787   4.962   3.223   1.695
  582SOL    HW2 1788   5.065   3.333   1.707
  583SOL     OW 1789   1.808   2.013   1.236
  583SOL    HW1 1790   1.803   1.917   1.237
  583SOL    HW2 1791   1.830   2.031   1.143
  584SOL     OW 1792   0.447   2.267   0.605
  584SOL    HW1 1793   0.477   2.210   0.532
  584SOL    HW2 1794   0.375   2.216   0.646
  585SOL     OW 1795   1.643   3.406   1.080
  585SOL    HW1 1796   1.572   3.371   1.022
  585SOL    HW2 1797   1.650   3.330   1.142
  586SOL     OW 1798   4.698   2.419   1.296
  586SOL    HW1 1799   4.742   2.353   1.354
  586SOL    HW2 1800   4.707   2.380   1.208
  587SOL     OW 1801   0.796   3.413   0.674
  587SOL    HW1 1802   0.740   3.488   0.698
  587SOL    HW2 1803   0.737   3.338   0.691
  588SOL     OW 1804   1.418   2.122   1.106
  588SOL    HW1 1805   1.435   2.029   1.128
  588SOL    HW2 1806   1.367   2.153   1.184
  589SOL     OW 1807   1.044   1.890   1.082
  589SOL    HW1 1808   0.989   1.829   1.030
  589SOL    HW2 1809   1.129   1.842   1.083
  590SOL     OW 1810   0.860   3.146   0.304
  590SOL    HW1 1811   0.822   3.071   0.354
  590SOL    HW2 1812   0.892   3.204   0.375
  591SOL     OW 1813   4.887   3.503   1.228
  591SOL    HW1 1814   4.903   3.589   1.270
  591SOL    HW2 1815   4.975   3.480   1.194
  592SOL     OW 1816   1.425   1.938   0.207
  592SOL    HW1 1817   1.453   1.851   0.175
  592SOL    HW2 1818   1.341   1.953   0.161
  593SOL     OW 1819   1.286   2.331   0.682
  593SOL    HW1 1820   1.239   2.416   0.672
  593SOL    HW2 1821   1.280   2.316   0.778
  594SOL     OW 1822   1.599   2.077   0.903
  594SOL    HW1 1823   1.538   2.109   0.972
  594SOL    HW2 1824   1.591   2.147   0.836
  595SOL     OW 1825   4.410   2.954   0.395
  595SOL    HW1 1826   4.480   2.904   0.351
  595SOL    HW2 1827   4.398   2.902   0.477
  596SOL     OW 1828   0.882   3.557   0.322
  596SOL    HW1 1829   0.790   3.549   0.290
  596SOL    HW2 1830   0.874   3.626   0.391
  597SOL     OW 1831   4.605   2.593   1.996
  597SOL    HW1 1832   4.577   2.510   2.039
  597SOL    HW2 1833   4.596   2.571   1.902
  598SOL     OW 1834   4.549   2.102   2.837
  598SOL    HW1 1835   4.590   2.065   2.917
  598SOL    HW2 1836   4.469   2.047   2.830
  599SOL     OW 1837   4.357   2.222   2.444
  599SOL    HW1 1838   4.263   2.241   2.426
  599SOL    HW2 1839   4.370   2.142   2.391
  600SOL     OW 1840   2.732   0.986   0.019
  600SOL    HW1 1841   2.648   0.996  -0.030
  600SOL    HW2 1842   2.747   1.077   0.049
  601SOL     OW 1843   5.921   3.410   2.541
  601SOL    HW1 1844   5.867   3.377   2.614
  601SOL    HW2 1845   5.859   3.404   2.467
  602SOL     OW 1846   5.472   2.567   2.532
  602SOL    HW1 1847   5.518   2.650   2.510
  602SOL    HW2 1848   5.433   2.588   2.619
  603SOL     OW 1849   1.827   2.440   2.073
  603SOL    HW1 1850   1.773   2.450   1.992
  603SOL    HW2 1851   1.777   2.370   2.118
  604SOL     OW 1852   5.054   2.972   2.947
  604SOL    HW1 1853   4.989   3.024   2.998
  604SOL    HW2 1854   5.102   3.046   2.904
  605SOL     OW 1855   5.022   2.849   2.519
  605SOL    HW1 1856   5.094   2.857   2.585
  605SOL    HW2 1857   4.958   2.917   2.548
  606SOL     OW 1858   4.674   3.238   2.942
  606SOL    HW1 1859   4.620   3.189   2.879
  606SOL    HW2 1860   4.721   3.303   2.886
  607SOL     OW 1861   3.640   1.117   0.172
  607SOL    HW1 1862   3.672   1.210   0.178
  607SOL    HW2 1863   3.689   1.077   0.248
  608SOL     OW 1864   5.901   2.302   2.613
  608SOL    HW1 1865   5.827   2.305   2.550
  608SOL    HW2 1866   5.883   2.380   2.667
  609SOL     OW 1867   4.561   3.577   2.303
  609SOL    HW1 1868   4.602   3.636   2.369
  609SOL    HW2 1869   4.627   3.580   2.231
  610SOL     OW 1870   4.665   3.328   2.346
  610SOL    HW1 1871   4.620   3.415   2.345
  610SOL    HW2 1872   4.601   3.274   2.398
  611SOL     OW 1873   4.595   2.935   2.708
  611SOL    HW1 1874   4.621   2.844   2.733
  611SOL    HW2 1875   4.541   2.963   2.785
  612SOL     OW 1876   2.761   1.407   0.337
  612SOL    HW1 1877   2.821   1.370   0.402
  612SOL    HW2 1878   2.810   1.486   0.306
  613SOL     OW 1879   4.928   2.851   2.022
  613SOL    HW1 1880   4.982   2.903   1.960
  613SOL    HW2 1881   4.969   2.879   2.107
  614SOL     OW 1882   3.830   4.101   0.353
  614SOL    HW1 1883   3.736   4.115   0.334
  614SOL    HW2 1884   3.845   4.164   0.424
  615SOL     OW 1885   4.496   2.445   2.373
  615SOL    HW1 1886   4.443   2.366   2.397
  615SOL    HW2 1887   4.475   2.504   2.448
  616SOL     OW 1888   1.862   3.599   2.163
  616SOL    HW1 1889   1.940   3.594   2.222
  616SOL    HW2 1890   1.863   3.692   2.136
  617SOL     OW 1891   4.375   3.379   1.985
  617SOL    HW1 1892   4.358   3.290   2.020
  617SOL    HW2 1893   4.343   3.434   2.060
  618SOL     OW 1894   6.042   2.818   2.531
  618SOL    HW1 1895   6.126   2.773   2.512
  618SOL    HW2 1896   6.025   2.868   2.450
  619SOL     OW 1897   1.674   2.984   2.305
  619SOL    HW1 1898   1.757   2.959   2.260
  619SOL    HW2 1899   1.705   3.062   2.357
  620SOL     OW 1900   4.956   3.241   2.646
  620SOL    HW1 1901   4.905   3.159   2.627
  620SOL    HW2 1902   4.958   3.281   2.556
  621SOL     OW 1903   3.395   0.987   0.214
  621SOL    HW1 1904   3.412   0.893   0.198
  621SOL    HW2 1905   3.483   1.027   0.204
  622SOL     OW 1906   5.193   1.866   2.383
  622SOL    HW1 1907   5.232   1.950   2.351
  622SOL    HW2 1908   5.097   1.886   2.376
  623SOL     OW 1909   2.426   0.672   0.076
  623SOL    HW1 1910   2.501   0.616   0.047
  623SOL    HW2 1911   2.397   0.713  -0.006
  624SOL     OW 1912   1.573   2.904   2.058
  624SOL    HW1 1913   1.496   2.847   2.083
  624SOL    HW2 1914   1.605   2.930   2.146
  625SOL     OW 1915   5.768   3.311   2.748
  625SOL    HW1 1916   5.727   3.316   2.837
  625SOL    HW2 1917   5.755   3.216   2.726
  626SOL     OW 1918   5.965   3.693   2.399
  626SOL    HW1 1919   5.957   3.628   2.328
  626SOL    HW2 1920   5.972   3.636   2.477
  627SOL     OW 1921   4.937   2.567   2.126
  627SOL    HW1 1922   4.935   2.656   2.089
  627SOL    HW2 1923   4.871   2.572   2.198
  628SOL     OW 1924   5.614   2.285   2.790
  628SOL    HW1 1925   5.532   2.232   2.792
  628SOL    HW2 1926   5.669   2.235   2.853
  629SOL     OW 1927   1.601   3.523   2.191
  629SOL    HW1 1928   1.697   3.536   2.178
  629SOL    HW2 1929   1.571   3.512   2.099
  630SOL     OW 1930   2.899   0.288   0.241
  630SOL    HW1 1931   2.909   0.222   0.312
  630SOL    HW2 1932   2.893   0.231   0.162
  631SOL     OW 1933   3.161   0.165   0.039
  631SOL    HW1 1934   3.071   0.130   0.046
  631SOL    HW2 1935   3.158   0.211  -0.046
  632SOL     OW 1936   5.387   2.540   2.272
  632SOL    HW1 1937   5.410   2.541   2.367
  632SOL    HW2 1938   5.299   2.497   2.272
  633SOL     OW 1939   4.450   2.603   2.594
  633SOL    HW1 1940   4.525   2.623   2.653
  633SOL    HW2 1941   4.441   2.688   2.546
  634SOL     OW 1942   5.194   2.210   2.070
  634SOL    HW1 1943   5.249   2.251   2.000
  634SOL    HW2 1944   5.151   2.138   2.023
  635SOL     OW 1945   5.743   3.019   2.413
  635SOL    HW1 1946   5.827   3.012   2.365
  635SOL    HW2 1947   5.691   3.080   2.357
  636SOL     OW 1948   4.935   1.974   2.757
  636SOL    HW1 1949   4.937   2.009   2.848
  636SOL    HW2 1950   4.945   2.054   2.704
  637SOL     OW 1951   5.338   3.309   2.323
  637SOL    HW1 1952   5.319   3.378   2.257
  637SOL    HW2 1953   5.300   3.348   2.403
  638SOL     OW 1954   4.663   3.625   2.709
  638SOL    HW1 1955   4.708   3.539   2.723
  638SOL    HW2 1956   4.724   3.683   2.760
  639SOL     OW 1957   6.137   2.927   2.769
  639SOL    HW1 1958   6.101   2.908   2.681
  639SOL    HW2 1959   6.056   2.924   2.823
  640SOL     OW 1960   3.289   1.183   0.379
  640SOL    HW1 1961   3.329   1.115   0.323
  640SOL    HW2 1962   3.239   1.237   0.314
  641SOL     OW 1963   4.666   2.818   2.126
  641SOL    HW1 1964   4.750   2.837   2.081
  641SOL    HW2 1965   4.639   2.735   2.080
  642SOL     OW 1966   5.829   2.645   2.547
  642SOL    HW1 1967   5.816   2.605   2.635
  642SOL    HW2 1968   5.906   2.704   2.560
  643SOL     OW 1969   5.508   3.604   2.100
  643SOL    HW1 1970   5.417   3.579   2.124
  643SOL    HW2 1971   5.531   3.534   2.036
  644SOL     OW 1972   1.682   3.269   1.958
  644SOL    HW1 1973   1.626   3.348   1.954
  644SOL    HW2 1974   1.619   3.200   1.930
  645SOL     OW 1975   4.761   3.602   2.120
  645SOL    HW1 1976   4.833   3.642   2.172
  645SOL    HW2 1977   4.807   3.532   2.071
  646SOL     OW 1978   5.718   1.981   2.320
  646SOL    HW1 1979   5.729   1.956   2.226
  646SOL    HW2 1980   5.803   1.953   2.358
  647SOL     OW 1981   2.397   1.474   0.071
  647SOL    HW1 1982   2.434   1.387   0.093
  647SOL    HW2 1983   2.361   1.458  -0.018
  648SOL     OW 1984   5.305   3.569   2.703
  648SOL    HW1 1985   5.385   3.514   2.698
  648SOL    HW2 1986   5.244   3.522   2.643
  649SOL     OW 1987   4.761   2.528   2.333
  649SOL    HW1 1988   4.783   2.435   2.354
  649SOL    HW2 1989   4.664   2.523   2.331
  650SOL     OW 1990   5.062   1.993   1.954
  650SOL    HW1 1991   5.139   1.947   1.918
  650SOL    HW2 1992   4.988   1.948   1.909
  651SOL     OW 1993   2.998   1.185   0.013
  651SOL    HW1 1994   2.989   1.149  -0.078
  651SOL    HW2 1995   3.046   1.112   0.057
  652SOL     OW 1996   3.480   0.326   0.241
  652SOL    HW1 1997   3.548   0.280   0.291
  652SOL    HW2 1998   3.514   0.417   0.235
  653SOL     OW 1999   5.147   3.207   2.838
  653SOL    HW1 2000   5.232   3.216   2.791
  653SOL    HW2 2001   5.082   3.224   2.766
  654SOL     OW 2002   5.275   2.364   2.745
  654SOL    HW1 2003   5.250   2.350   2.650
  654SOL    HW2 2004   5.315   2.278   2.766
  655SOL     OW 2005   4.935   1.921   2.343
  655SOL    HW1 2006   4.855   1.923   2.400
  655SOL    HW2 2007   4.917   1.995   2.280
  656SOL     OW 2008   1.471   3.097   1.897
  656SOL    HW1 2009   1.505   3.022   1.951
  656SOL    HW2 2010   1.383   3.111   1.936
  657SOL     OW 2011   4.656   1.840   1.997
  657SOL    HW1 2012   4.722   1.863   1.929
  657SOL    HW2 2013   4.711   1.792   2.062
  658SOL     OW 2014   5.291   2.107   2.306
  658SOL    HW1 2015   5.258   2.144   2.222
  658SOL    HW2 2016   5.385   2.134   2.304
  659SOL     OW 2017   3.239   0.215   0.309
  659SOL    HW1 2018   3.199   0.213   0.220
  659SOL    HW2 2019   3.320   0.266   0.292
  660SOL     OW 2020   5.535   3.427   2.633
  660SOL    HW1 2021   5.559   3.499   2.572
  660SOL    HW2 2022   5.622   3.403   2.670
  661SOL     OW 2023   4.812   3.023   2.567
  661SOL    HW1 2024   4.735   2.997   2.621
  661SOL    HW2 2025   4.774   3.021   2.477
  662SOL     OW 2026   5.593   3.650   2.477
  662SOL    HW1 2027   5.641   3.719   2.427
  662SOL    HW2 2028   5.525   3.704   2.521
  663SOL     OW 2029   5.352   2.347   1.890
  663SOL    HW1 2030   5.322   2.433   1.857
  663SOL    HW2 2031   5.419   2.370   1.957
  664SOL     OW 2032   2.264   0.209   0.179
  664SOL    HW1 2033   2.359   0.210   0.160
  664SOL    HW2 2034   2.249   0.301   0.207
  665SOL     OW 2035   4.926   2.035   3.022
  665SOL    HW1 2036   4.952   1.953   3.067
  665SOL    HW2 2037   4.830   2.035   3.037
  666SOL     OW 2038   5.209   2.305   2.490
  666SOL    HW1 2039   5.170   2.357   2.418
  666SOL    HW2 2040   5.237   2.225   2.442
  667SOL     OW 2041   5.369   1.924   2.600
  667SOL    HW1 2042   5.305   1.912   2.528
  667SOL    HW2 2043   5.343   1.853   2.662
  668SOL     OW 2044   5.722   3.050   2.691
  668SOL    HW1 2045   5.631   3.016   2.694
  668SOL    HW2 2046   5.743   3.037   2.596
  669SOL     OW 2047   5.773   2.511   2.783
  669SOL    HW1 2048   5.709   2.438   2.790
  669SOL    HW2 2049   5.830   2.496   2.861
  670SOL     OW 2050   1.816   2.643   2.253
  670SOL    HW1 2051   1.878   2.607   2.320
  670SOL    HW2 2052   1.823   2.576   2.182
  671SOL     OW 2053   4.826   3.328   1.973
  671SOL    HW1 2054   4.758   3.276   2.019
  671SOL    HW2 2055   4.823   3.289   1.884
  672SOL     OW 2056   1.774   3.180   2.453
  672SOL    HW1 2057   1.867   3.174   2.479
  672SOL    HW2 2058   1.745   3.263   2.492
  673SOL     OW 2059   1.387   2.431   1.904
  673SOL    HW1 2060   1.339   2.403   1.984
  673SOL    HW2 2061   1.480   2.423   1.930
  674SOL     OW 2062   4.887   2.104   2.147
  674SOL    HW1 2063   4.952   2.065   2.085
  674SOL    HW2 2064   4.876   2.193   2.107
  675SOL     OW 2065   3.131   0.980   0.132
  675SOL    HW1 2066   3.079   0.942   0.204
  675SOL    HW2 2067   3.220   0.984   0.171
  676SOL     OW 2068   5.470   3.121   2.976
  676SOL    HW1 2069   5.394   3.128   3.036
  676SOL    HW2 2070   5.434   3.150   2.891
  677SOL     OW 2071   5.896   2.937   2.893
  677SOL    HW1 2072   5.910   3.015   2.950
  677SOL    HW2 2073   5.828   2.969   2.831
  678SOL     OW 2074   3.089   4.150   0.158
  678SOL    HW1 2075   3.125   4.139   0.068
  678SOL    HW2 2076   3.167   4.184   0.206
  679SOL     OW 2077   5.062   2.923   2.254
  679SOL    HW1 2078   5.044   2.892   2.345
  679SOL    HW2 2079   5.143   2.871   2.232
  680SOL     OW 2080   2.617   0.479   0.037
  680SOL    HW1 2081   2.662   0.498   0.121
  680SOL    HW2 2082   2.582   0.389   0.053
  681SOL     OW 2083   3.423   0.108   0.080
  681SOL    HW1 2084   3.450   0.188   0.129
  681SOL    HW2 2085   3.330   0.128   0.058
  682SOL     OW 2086   2.222   1.172   0.189
  682SOL    HW1 2087   2.183   1.252   0.229
  682SOL    HW2 2088   2.312   1.200   0.166
  683SOL     OW 2089   4.687   3.007   2.323
  683SOL    HW1 2090   4.690   3.073   2.251
  683SOL    HW2 2091   4.682   2.925   2.271
  684SOL     OW 2092   4.808   2.420   2.739
  684SOL    HW1 2093   4.829   2.475   2.662
  684SOL    HW2 2094   4.894   2.414   2.783
  685SOL     OW 2095   5.589   3.205   2.271
  685SOL    HW1 2096   5.639   3.284   2.299
  685SOL    HW2 2097   5.498   3.230   2.297
  686SOL     OW 2098   5.666   3.312   2.996
  686SOL    HW1 2099   5.710   3.302   3.082
  686SOL    HW2 2100   5.597   3.243   3.000
  687SOL     OW 2101   5.916   2.496   2.326
  687SOL    HW1 2102   5.871   2.541   2.399
  687SOL    HW2 2103   5.983   2.561   2.301
  688SOL     OW 2104   2.484   1.212   0.112
  688SOL    HW1 2105   2.481   1.158   0.030
  688SOL    HW2 2106   2.579   1.232   0.117
  689SOL     OW 2107   5.002   2.698   2.938
  689SOL    HW1 2108   5.003   2.794   2.927
  689SOL    HW2 2109   4.920   2.684   2.990
  690SOL     OW 2110   5.611   2.725   2.889
  690SOL    HW1 2111   5.528   2.694   2.851
  690SOL    HW2 2112   5.675   2.663   2.851
  691SOL     OW 2113   5.529   2.381   2.101
  691SOL    HW1 2114   5.542   2.308   2.165
  691SOL    HW2 2115   5.486   2.448   2.159
  692SOL     OW 2116   2.493   4.187   0.018
  692SOL    HW1 2117   2.514   4.236   0.099
  692SOL    HW2 2118   2.455   4.105   0.053
  693SOL     OW 2119   2.188   0.920   0.100
  693SOL    HW1 2120   2.249   0.890   0.170
  693SOL    HW2 2121   2.185   1.016   0.120
  694SOL     OW 2122   5.042   2.432   2.870
  694SOL    HW1 2123   5.125   2.418   2.821
  694SOL    HW2 2124   5.041   2.529   2.884
  695SOL     OW 2125   4.704   1.923   2.485
  695SOL    HW1 2126   4.660   2.007   2.507
  695SOL    HW2 2127   4.701   1.876   2.571
  696SOL     OW 2128   1.630   2.270   2.181
  696SOL    HW1 2129   1.664   2.211   2.249
  696SOL    HW2 2130   1.600   2.347   2.234
  697SOL     OW 2131   5.367   2.616   2.790
  697SOL    HW1 2132   5.336   2.628   2.882
  697SOL    HW2 2133   5.339   2.523   2.773
  698SOL     OW 2134   1.537   2.120   1.967
  698SOL    HW1 2135   1.488   2.049   2.013
  698SOL    HW2 2136   1.567   2.177   2.040
  699SOL     OW 2137   5.608   2.678   1.883
  699SOL    HW1 2138   5.646   2.587   1.884
  699SOL    HW2 2139   5.644   2.712   1.799
  700SOL     OW 2140   5.391   3.213   2.728
  700SOL    HW1 2141   5.420   3.135   2.677
  700SOL    HW2 2142   5.440   3.286   2.684
  701SOL     OW 2143   4.665   2.680   2.753
  701SOL    HW1 2144   4.737   2.667   2.687
  701SOL    HW2 2145   4.689   2.614   2.819
  702SOL     OW 2146   4.607   2.356   2.899
  702SOL    HW1 2147   4.584   2.265   2.872
  702SOL    HW2 2148   4.678   2.378   2.835
  703SOL     OW 2149   3.312   4.269   0.273
  703SOL    HW1 2150   3.281   4.347   0.320
  703SOL    HW2 2151   3.365   4.309   0.202
  704SOL     OW 2152   4.340   3.136   2.117
  704SOL    HW1 2153   4.246   3.148   2.139
  704SOL    HW2 2154   4.355   3.043   2.143
  705SOL     OW 2155   4.457   3.592   2.881
  705SOL    HW1 2156   4.420   3.509   2.849
  705SOL    HW2 2157   4.529   3.610   2.817
  706SOL     OW 2158   4.818   3.421   2.803
  706SOL    HW1 2159   4.873   3.494   2.836
  706SOL    HW2 2160   4.881   3.368   2.750
  707SOL     OW 2161   5.256   2.643   3.029
  707SOL    HW1 2162   5.266   2.656   3.125
  707SOL    HW2 2163   5.162   2.663   3.015
  708SOL     OW 2164   4.364   2.451   2.979
  708SOL    HW1 2165   4.452   2.426   2.945
  708SOL    HW2 2166   4.368   2.414   3.068
  709SOL     OW 2167   5.143   2.420   2.244
  709SOL    HW1 2168   5.150   2.347   2.180
  709SOL    HW2 2169   5.073   2.475   2.204
  710SOL     OW 2170   5.930   2.466   2.995
  710SOL    HW1 2171   5.914   2.397   3.062
  710SOL    HW2 2172   6.028   2.466   2.991
  711SOL     OW 2173   2.891   0.111   0.029
  711SOL    HW1 2174   2.848   0.026   0.010
  711SOL    HW2 2175   2.873   0.162  -0.053
  712SOL     OW 2176   3.140   1.326   0.206
  712SOL    HW1 2177   3.092   1.291   0.129
  712SOL    HW2 2178   3.145   1.421   0.187
  713SOL     OW 2179   4.825   2.336   2.021
  713SOL    HW1 2180   4.871   2.420   2.043
  713SOL    HW2 2181   4.735   2.355   2.054
  714SOL     OW 2182   2.361   0.837   0.291
  714SOL    HW1 2183   2.323   0.785   0.365
  714SOL    HW2 2184   2.392   0.768   0.230
  715SOL     OW 2185   3.442   0.744   0.032
  715SOL    HW1 2186   3.447   0.678  -0.040
  715SOL    HW2 2187   3.396   0.817  -0.014
  716SOL     OW 2188   5.684   2.768   2.130
  716SOL    HW1 2189   5.621   2.732   2.193
  716SOL    HW2 2190   5.651   2.735   2.044
  717SOL     OW 2191   6.075   3.595   3.009
  717SOL    HW1 2192   6.156   3.614   2.958
  717SOL    HW2 2193   6.051   3.507   2.972
  718SOL     OW 2194   5.589   3.574   2.952
  718SOL    HW1 2195   5.677   3.614   2.939
  718SOL    HW2 2196   5.611   3.482   2.973
  719SOL     OW 2197   4.436   3.003   2.918
  719SOL    HW1 2198   4.411   3.037   3.007
  719SOL    HW2 2199   4.349   3.000   2.876
  720SOL     OW 2200   1.752   2.089   2.345
  720SOL    HW1 2201   1.807   2.051   2.273
  720SOL    HW2 2202   1.705   2.009   2.376
  721SOL     OW 2203   5.725   3.431   2.348
  721SOL    HW1 2204   5.788   3.467   2.283
  721SOL    HW2 2205   5.671   3.508   2.373
  722SOL     OW 2206   5.612   2.792   2.482
  722SOL    HW1 2207   5.691   2.737   2.500
  722SOL    HW2 2208   5.653   2.872   2.444
  723SOL     OW 2209   2.826   0.908   0.270
  723SOL    HW1 2210   2.748   0.943   0.316
  723SOL    HW2 2211   2.808   0.941   0.180
  724SOL     OW 2212   5.030   3.506   1.999
  724SOL    HW1 2213   5.051   3.507   1.903
  724SOL    HW2 2214   4.966   3.432   2.002
  725SOL     OW 2215   3.758   1.363   0.180
  725SOL    HW1 2216   3.816   1.388   0.108
  725SOL    HW2 2217   3.770   1.434   0.244
  726SOL     OW 2218   6.182   2.060   2.855
  726SOL    HW1 2219   6.213   1.970   2.835
  726SOL    HW2 2220   6.094   2.062   2.813
  727SOL     OW 2221   4.598   2.157   2.564
  727SOL    HW1 2222   4.511   2.189   2.533
  727SOL    HW2 2223   4.584   2.149   2.660
  728SOL     OW 2224   5.584   3.417   1.919
  728SOL    HW1 2225   5.579   3.324   1.947
  728SOL    HW2 2226   5.504   3.424   1.863
  729SOL     OW 2227   2.831   0.667   0.149
  729SOL    HW1 2228   2.882   0.692   0.071
  729SOL    HW2 2229   2.831   0.750   0.201
  730SOL     OW 2230   5.275   2.779   2.188
  730SOL    HW1 2231   5.303   2.780   2.095
  730SOL    HW2 2232   5.319   2.699   2.221
  731SOL     OW 2233   1.513   3.501   1.934
  731SOL    HW1 2234   1.421   3.471   1.917
  731SOL    HW2 2235   1.548   3.510   1.843
  732SOL     OW 2236   2.574   1.010   0.313
  732SOL    HW1 2237   2.539   1.085   0.263
  732SOL    HW2 2238   2.499   0.949   0.314
  733SOL     OW 2239   5.971   3.152   3.049
  733SOL    HW1 2240   6.059   3.153   3.092
  733SOL    HW2 2241   5.913   3.186   3.120
  734SOL     OW 2242   5.460   2.967   2.633
  734SOL    HW1 2243   5.374   2.927   2.656
  734SOL    HW2 2244   5.498   2.900   2.574
  735SOL     OW 2245   5.395   2.122   2.795
  735SOL    HW1 2246   5.391   2.060   2.719
  735SOL    HW2 2247   5.391   2.060   2.870
  736SOL     OW 2248   4.942   3.335   2.390
  736SOL    HW1 2249   4.983   3.287   2.315
  736SOL    HW2 2250   4.847   3.332   2.368
  737SOL     OW 2251   3.791   0.110   0.141
  737SOL    HW1 2252   3.870   0.154   0.179
  737SOL    HW2 2253   3.830   0.029   0.105
  738SOL     OW 2254   4.611   3.200   2.112
  738SOL    HW1 2255   4.516   3.181   2.122
  738SOL    HW2 2256   4.629   3.256   2.189
  739SOL     OW 2257   2.855   4.225   0.283
  739SOL    HW1 2258   2.940   4.207   0.239
  739SOL    HW2 2259   2.880   4.300   0.342
  740SOL     OW 2260   4.522   2.253   1.752
  740SOL    HW1 2261   4.447   2.250   1.812
  740SOL    HW2 2262   4.541   2.349   1.746
  741SOL     OW 2263   3.580   0.594   0.216
  741SOL    HW1 2264   3.519   0.649   0.163
  741SOL    HW2 2265   3.650   0.578   0.150
  742SOL     OW 2266   4.404   2.003   2.296
  742SOL    HW1 2267   4.360   1.959   2.219
  742SOL    HW2 2268   4.487   2.031   2.253
  743SOL     OW 2269   5.547   3.158   2.000
  743SOL    HW1 2270   5.450   3.151   1.995
  743SOL    HW2 2271   5.562   3.159   2.097
  744SOL     OW 2272   2.718   0.480   0.313
  744SOL    HW1 2273   2.764   0.556   0.270
  744SOL    HW2 2274   2.781   0.407   0.293
  745SOL     OW 2275   5.831   3.690   2.912
  745SOL    HW1 2276   5.861   3.737   2.833
  745SOL    HW2 2277   5.914   3.658   2.950
  746SOL     OW 2278   3.761   0.567   0.017
  746SOL    HW1 2279   3.759   0.479  -0.026
  746SOL    HW2 2280   3.745   0.628  -0.058
  747SOL     OW 2281   5.551   2.195   2.305
  747SOL    HW1 2282   5.611   2.119   2.309
  747SOL    HW2 2283   5.580   2.248   2.382
  748SOL     OW 2284   4.854   2.633   2.565
  748SOL    HW1 2285   4.920   2.701   2.543
  748SOL    HW2 2286   4.826   2.603   2.476
  749SOL     OW 2287   3.980   0.636   0.166
  749SOL    HW1 2288   3.926   0.680   0.234
  749SOL    HW2 2289   3.911   0.606   0.104
  750SOL     OW 2290   5.268   3.206   1.982
  750SOL    HW1 2291   5.207   3.230   2.053
  750SOL    HW2 2292   5.272   3.286   1.927
  751SOL     OW 2293   5.221   2.849   2.721
  751SOL    HW1 2294   5.265   2.764   2.743
  751SOL    HW2 2295   5.179   2.873   2.804
  752SOL     OW 2296   5.363   2.770   1.933
  752SOL    HW1 2297   5.360   2.847   1.874
  752SOL    HW2 2298   5.454   2.737   1.917
  753SOL     OW 2299   6.157   3.442   2.669
  753SOL    HW1 2300   6.079   3.440   2.611
  753SOL    HW2 2301   6.122   3.399   2.749
  754SOL     OW 2302   4.478   3.160   2.448
  754SOL    HW1 2303   4.389   3.125   2.463
  754SOL    HW2 2304   4.526   3.083   2.415
  755SOL     OW 2305   3.926   4.221   0.049
  755SOL    HW1 2306   4.011   4.214   0.097
  755SOL    HW2 2307   3.958   4.229  -0.042
  756SOL     OW 2308   4.789   2.269   2.393
  756SOL    HW1 2309   4.809   2.195   2.336
  756SOL    HW2 2310   4.725   2.232   2.457
  757SOL     OW 2311   6.005   3.364   2.884
  757SOL    HW1 2312   5.921   3.355   2.835
  757SOL    HW2 2313   6.002   3.284   2.940
  758SOL     OW 2314   2.526   0.228   0.092
  758SOL    HW1 2315   2.563   0.146   0.128
  758SOL    HW2 2316   2.503   0.203  -0.000
  759SOL     OW 2317   5.168   3.458   2.490
  759SOL    HW1 2318   5.162   3.544   2.442
  759SOL    HW2 2319   5.084   3.416   2.463
  760SOL     OW 2320   5.754   2.148   2.975
  760SOL    HW1 2321   5.780   2.072   3.031
  760SOL    HW2 2322   5.700   2.198   3.040
  761SOL     OW 2323   5.387   1.916   2.985
  761SOL    HW1 2324   5.369   1.838   2.931
  761SOL    HW2 2325   5.461   1.885   3.041
  762SOL     OW 2326   5.104   3.192   2.216
  762SOL    HW1 2327   5.086   3.096   2.225
  762SOL    HW2 2328   5.189   3.202   2.262
  763SOL     OW 2329   2.751   1.241   0.116
  763SOL    HW1 2330   2.757   1.302   0.192
  763SOL    HW2 2331   2.842   1.245   0.080
  764SOL     OW 2332   5.736   1.899   2.063
  764SOL    HW1 2333   5.777   1.824   2.016
  764SOL    HW2 2334   5.643   1.867   2.071
  765SOL     OW 2335   5.629   2.339   2.523
  765SOL    HW1 2336   5.577   2.421   2.518
  765SOL    HW2 2337   5.619   2.315   2.617
  766SOL     OW 2338   5.920   2.070   2.771
  766SOL    HW1 2339   5.863   2.106   2.841
  766SOL    HW2 2340   5.917   2.141   2.705
  767SOL     OW 2341   4.408   2.884   2.209
  767SOL    HW1 2342   4.493   2.858   2.169
  767SOL    HW2 2343   4.422   2.860   2.302
  768SOL     OW 2344   5.253   3.512   2.159
  768SOL    HW1 2345   5.177   3.503   2.099
  768SOL    HW2 2346   5.218   3.575   2.225
  769SOL     OW 2347   4.553   3.984   0.967
  769SOL    HW1 2348   4.568   3.950   1.057
  769SOL    HW2 2349   4.457   3.968   0.956
  770SOL     OW 2350   4.372   4.055   0.590
  770SOL    HW1 2351   4.279   4.075   0.565
  770SOL    HW2 2352   4.371   3.958   0.578
  771SOL     OW 2353   1.652   0.069   0.154
  771SOL    HW1 2354   1.748   0.053   0.144
  771SOL    HW2 2355   1.622  -0.015   0.189
  772SOL     OW 2356   4.816   4.094   1.480
  772SOL    HW1 2357   4.893   4.034   1.480
  772SOL    HW2 2358   4.741   4.032   1.484
  773SOL     OW 2359   1.553   3.871   1.460
  773SOL    HW1 2360   1.604   3.951   1.438
  773SOL    HW2 2361   1.510   3.896   1.544
  774SOL     OW 2362   4.477   4.303   0.585
  774SOL    HW1 2363   4.436   4.214   0.589
  774SOL    HW2 2364   4.437   4.346   0.663
  775SOL     OW 2365   0.879   3.763   0.501
  775SOL    HW1 2366   0.907   3.843   0.453
  775SOL    HW2 2367   0.782   3.775   0.505
  776SOL     OW 2368   4.727   3.937   1.777
  776SOL    HW1 2369   4.710   4.023   1.818
  776SOL    HW2 2370   4.638   3.904   1.756
  777SOL     OW 2371   1.263   4.010   0.905
  777SOL    HW1 2372   1.179   3.966   0.931
  777SOL    HW2 2373   1.326   3.967   0.966
  778SOL     OW 2374   1.391   4.208   1.671
  778SOL    HW1 2375   1.412   4.260   1.751
  778SOL    HW2 2376   1.426   4.119   1.694
  779SOL     OW 2377   1.038   4.097   1.160
  779SOL    HW1 2378   0.943   4.093   1.183
  779SOL    HW2 2379   1.042   4.025   1.094
  780SOL     OW 2380   4.381   0.113   0.803
  780SOL    HW1 2381   4.439   0.151   0.870
  780SOL    HW2 2382   4.345   0.192   0.760
  781SOL     OW 2383   0.915   4.069   0.093
  781SOL    HW1 2384   0.847   4.086   0.025
  781SOL    HW2 2385   0.933   3.975   0.078
  782SOL     OW 2386   1.725   4.329   1.799
  782SOL    HW1 2387   1.708   4.314   1.893
  782SOL    HW2 2388   1.720   4.239   1.763
  783SOL     OW 2389   4.850   3.830   0.910
  783SOL    HW1 2390   4.868   3.865   1.000
  783SOL    HW2 2391   4.821   3.910   0.863
  784SOL     OW 2392   1.494   0.101   0.698
  784SOL    HW1 2393   1.548   0.174   0.732
  784SOL    HW2 2394   1.477   0.130   0.606
  785SOL     OW 2395   4.563   3.971   1.491
  785SOL    HW1 2396   4.507   4.042   1.527
  785SOL    HW2 2397   4.541   3.898   1.552
  786SOL     OW 2398   1.373   3.828   0.443
  786SOL    HW1 2399   1.370   3.825   0.345
  786SOL    HW2 2400   1.468   3.836   0.460
  787SOL     OW 2401   1.461   3.942   1.716
  787SOL    HW1 2402   1.468   3.951   1.814
  787SOL    HW2 2403   1.392   3.873   1.708
  788SOL     OW 2404   0.663   3.854   0.087
  788SOL    HW1 2405   0.758   3.834   0.092
  788SOL    HW2 2406   0.625   3.768   0.065
  789SOL     OW 2407   5.108   3.996   1.763
  789SOL    HW1 2408   5.202   3.971   1.769
  789SOL    HW2 2409   5.068   3.936   1.828
  790SOL     OW 2410   1.371   4.288   1.415
  790SOL    HW1 2411   1.376   4.254   1.507
  790SOL    HW2 2412   1.308   4.362   1.425
  791SOL     OW 2413   0.611   3.783   0.487
  791SOL    HW1 2414   0.535   3.775   0.549
  791SOL    HW2 2415   0.577   3.846   0.421
  792SOL     OW 2416   0.273   3.710   0.140
  792SOL    HW1 2417   0.281   3.807   0.147
  792SOL    HW2 2418   0.330   3.679   0.213
  793SOL     OW 2419   0.967   3.978   0.358
  793SOL    HW1 2420   0.955   4.021   0.272
  793SOL    HW2 2421   1.052   4.014   0.388
  794SOL     OW 2422   4.479   4.322   1.420
  794SOL    HW1 2423   4.572   4.310   1.391
  794SOL    HW2 2424   4.476   4.419   1.433
  795SOL     OW 2425   4.874   3.929   1.163
  795SOL    HW1 2426   4.897   3.858   1.226
  795SOL    HW2 2427   4.778   3.938   1.181
  796SOL     OW 2428   1.026   3.750   0.735
  796SOL    HW1 2429   0.971   3.756   0.655
  796SOL    HW2 2430   0.981   3.681   0.786
  797SOL     OW 2431   1.449   4.233   0.982
  797SOL    HW1 2432   1.382   4.183   1.031
  797SOL    HW2 2433   1.505   4.268   1.053
  798SOL     OW 2434   0.509   3.944   0.295
  798SOL    HW1 2435   0.569   3.923   0.221
  798SOL    HW2 2436   0.426   3.964   0.247
  799SOL     OW 2437   5.265   3.786   1.412
  799SOL    HW1 2438   5.273   3.755   1.320
  799SOL    HW2 2439   5.353   3.828   1.426
  800SOL     OW 2440   1.299   4.075   1.251
  800SOL    HW1 2441   1.321   4.152   1.305
  800SOL    HW2 2442   1.207   4.093   1.224
  801SOL     OW 2443   4.833   4.303   0.872
  801SOL    HW1 2444   4.805   4.320   0.780
  801SOL    HW2 2445   4.864   4.392   0.899
  802SOL     OW 2446   5.365   3.918   1.791
  802SOL    HW1 2447   5.409   3.983   1.734
  802SOL    HW2 2448   5.425   3.842   1.784
  803SOL     OW 2449   4.890   3.732   1.731
  803SOL    HW1 2450   4.836   3.691   1.660
  803SOL    HW2 2451   4.838   3.814   1.746
  804SOL     OW 2452   4.609   3.910   1.225
  804SOL    HW1 2453   4.587   3.939   1.315
  804SOL    HW2 2454   4.573   3.819   1.225
  805SOL     OW 2455   0.778   4.319   0.955
  805SOL    HW1 2456   0.713   4.266   0.906
  805SOL    HW2 2457   0.734   4.406   0.955
  806SOL     OW 2458   4.710   3.759   0.619
  806SOL    HW1 2459   4.669   3.844   0.644
  806SOL    HW2 2460   4.680   3.701   0.690
  807SOL     OW 2461   1.517   4.100   0.558
  807SOL    HW1 2462   1.564   4.016   0.543
  807SOL    HW2 2463   1.497   4.127   0.467
  808SOL     OW 2464   1.581   3.971   0.132
  808SOL    HW1 2465   1.509   3.906   0.138
  808SOL    HW2 2466   1.545   4.041   0.191
  809SOL     OW 2467   4.653   4.220   1.057
  809SOL    HW1 2468   4.621   4.137   1.018
  809SOL    HW2 2469   4.718   4.249   0.990
  810SOL     OW 2470   5.477   4.100   1.623
  810SOL    HW1 2471   5.412   4.174   1.621
  810SOL    HW2 2472   5.560   4.147   1.644
  811SOL     OW 2473   1.180   3.900   1.446
  811SOL    HW1 2474   1.164   3.976   1.506
  811SOL    HW2 2475   1.232   3.940   1.375
  812SOL     OW 2476   4.410   4.315   1.150
  812SOL    HW1 2477   4.497   4.285   1.119
  812SOL    HW2 2478   4.416   4.298   1.245
  813SOL     OW 2479   4.408   4.162   1.622
  813SOL    HW1 2480   4.438   4.219   1.548
  813SOL    HW2 2481   4.332   4.214   1.654
  814SOL     OW 2482   0.740   4.295   0.244
  814SOL    HW1 2483   0.774   4.206   0.260
  814SOL    HW2 2484   0.703   4.320   0.332
  815SOL     OW 2485   1.606   4.319   1.189
  815SOL    HW1 2486   1.590   4.255   1.259
  815SOL    HW2 2487   1.692   4.288   1.152
  816SOL     OW 2488   5.097   4.099   1.168
  816SOL    HW1 2489   5.022   4.039   1.173
  816SOL    HW2 2490   5.065   4.170   1.112
  817SOL     OW 2491   0.933   3.795   0.072
  817SOL    HW1 2492   0.946   3.733  -0.002
  817SOL    HW2 2493   1.002   3.766   0.134
  818SOL     OW 2494   1.644   3.864   0.516
  818SOL    HW1 2495   1.722   3.855   0.456
  818SOL    HW2 2496   1.642   3.774   0.556
  819SOL     OW 2497   1.820   3.888   0.991
  819SOL    HW1 2498   1.842   3.797   0.961
  819SOL    HW2 2499   1.741   3.909   0.937
  820SOL     OW 2500   4.617   3.999   0.704
  820SOL    HW1 2501   4.531   4.025   0.667
  820SOL    HW2 2502   4.597   3.997   0.799
  821SOL     OW 2503   1.038   3.884   0.983
  821SOL    HW1 2504   1.027   3.841   0.897
  821SOL    HW2 2505   1.008   3.815   1.045
  822SOL     OW 2506   1.740   4.076   1.428
  822SOL    HW1 2507   1.804   4.149   1.413
  822SOL    HW2 2508   1.777   4.007   1.368
  823SOL     OW 2509   5.037   3.921   1.505
  823SOL    HW1 2510   5.121   3.884   1.471
  823SOL    HW2 2511   5.063   3.949   1.595
  824SOL     OW 2512   4.337   4.013   0.086
  824SOL    HW1 2513   4.281   4.090   0.111
  824SOL    HW2 2514   4.314   4.003  -0.007
  825SOL     OW 2515   4.292   3.832   0.285
  825SOL    HW1 2516   4.303   3.905   0.222
  825SOL    HW2 2517   4.316   3.754   0.231
  826SOL     OW 2518   5.066   4.272   1.746
  826SOL    HW1 2519   4.975   4.282   1.714
  826SOL    HW2 2520   5.076   4.175   1.753
  827SOL     OW 2521   1.214   4.059   0.453
  827SOL    HW1 2522   1.262   3.976   0.472
  827SOL    HW2 2523   1.214   4.105   0.539
  828SOL     OW 2524   1.709   4.073   1.699
  828SOL    HW1 2525   1.720   4.074   1.602
  828SOL    HW2 2526   1.631   4.016   1.709
  829SOL     OW 2527   1.830   3.887   1.262
  829SOL    HW1 2528   1.846   3.792   1.267
  829SOL    HW2 2529   1.821   3.900   1.166
  830SOL     OW 2530   0.437   4.117   0.501
  830SOL    HW1 2531   0.479   4.047   0.448
  830SOL    HW2 2532   0.401   4.069   0.578
  831SOL     OW 2533   4.723   4.290   1.310
  831SOL    HW1 2534   4.772   4.223   1.361
  831SOL    HW2 2535   4.713   4.248   1.223
  832SOL     OW 2536   1.445   3.907   1.079
  832SOL    HW1 2537   1.458   3.816   1.112
  832SOL    HW2 2538   1.408   3.953   1.157
  833SOL     OW 2539   0.981   3.680   1.163
  833SOL    HW1 2540   0.922   3.603   1.162
  833SOL    HW2 2541   1.064   3.640   1.129
  834SOL     OW 2542   1.345   3.815   0.165
  834SOL    HW1 2543   1.351   3.823   0.068
  834SOL    HW2 2544   1.261   3.768   0.176
  835SOL     OW 2545   1.222   4.185   0.707
  835SOL    HW1 2546   1.151   4.247   0.732
  835SOL    HW2 2547   1.218   4.119   0.779
  836SOL     OW 2548   1.587   3.959   0.849
  836SOL    HW1 2549   1.541   3.954   0.935
  836SOL    HW2 2550   1.535   3.896   0.796
  837SOL     OW 2551   4.544   3.991   2.969
  837SOL    HW1 2552   4.599   3.967   2.892
  837SOL    HW2 2553   4.466   3.933   2.960
  838SOL     OW 2554   4.366   4.056   2.507
  838SOL    HW1 2555   4.308   4.011   2.571
  838SOL    HW2 2556   4.346   4.007   2.424
  839SOL     OW 2557   1.608   0.004   2.096
  839SOL    HW1 2558   1.698   0.035   2.121
  839SOL    HW2 2559   1.602  -0.082   2.142
  840SOL     OW 2560   5.960   4.125   2.606
  840SOL    HW1 2561   5.884   4.139   2.548
  840SOL    HW2 2562   5.942   4.189   2.677
  841SOL     OW 2563   3.850   1.625   0.318
  841SOL    HW1 2564   3.878   1.645   0.226
  841SOL    HW2 2565   3.936   1.612   0.363
  842SOL     OW 2566   4.488   4.303   2.517
  842SOL    HW1 2567   4.436   4.220   2.521
  842SOL    HW2 2568   4.442   4.360   2.582
  843SOL     OW 2569   5.149   3.683   2.340
  843SOL    HW1 2570   5.200   3.766   2.344
  843SOL    HW2 2571   5.058   3.716   2.327
  844SOL     OW 2572   5.609   4.118   2.757
  844SOL    HW1 2573   5.520   4.079   2.764
  844SOL    HW2 2574   5.658   4.058   2.818
  845SOL     OW 2575   5.340   4.141   3.015
  845SOL    HW1 2576   5.247   4.125   3.040
  845SOL    HW2 2577   5.351   4.081   2.939
  846SOL     OW 2578   4.360   0.154   2.677
  846SOL    HW1 2579   4.369   0.243   2.638
  846SOL    HW2 2580   4.266   0.136   2.660
  847SOL     OW 2581   5.188   3.991   2.092
  847SOL    HW1 2582   5.261   3.994   2.028
  847SOL    HW2 2583   5.130   3.924   2.054
  848SOL     OW 2584   4.717   4.005   2.755
  848SOL    HW1 2585   4.776   3.933   2.787
  848SOL    HW2 2586   4.773   4.084   2.768
  849SOL     OW 2587   5.817   0.099   2.562
  849SOL    HW1 2588   5.821   0.052   2.647
  849SOL    HW2 2589   5.864   0.180   2.586
  850SOL     OW 2590   5.741   3.832   2.329
  850SOL    HW1 2591   5.742   3.802   2.236
  850SOL    HW2 2592   5.825   3.796   2.362
  851SOL     OW 2593   5.014   3.803   1.961
  851SOL    HW1 2594   5.036   3.718   2.003
  851SOL    HW2 2595   4.970   3.771   1.879
  852SOL     OW 2596   3.486   2.112   0.236
  852SOL    HW1 2597   3.563   2.123   0.296
  852SOL    HW2 2598   3.438   2.196   0.251
  853SOL     OW 2599   4.900   3.773   2.289
  853SOL    HW1 2600   4.835   3.762   2.361
  853SOL    HW2 2601   4.874   3.857   2.249
  854SOL     OW 2602   4.587   3.792   2.042
  854SOL    HW1 2603   4.649   3.867   2.045
  854SOL    HW2 2604   4.646   3.719   2.070
  855SOL     OW 2605   5.289   3.913   2.343
  855SOL    HW1 2606   5.254   3.954   2.262
  855SOL    HW2 2607   5.378   3.953   2.349
  856SOL     OW 2608   2.164   2.097   0.166
  856SOL    HW1 2609   2.253   2.064   0.187
  856SOL    HW2 2610   2.171   2.192   0.192
  857SOL     OW 2611   2.757   1.738   0.076
  857SOL    HW1 2612   2.749   1.688  -0.009
  857SOL    HW2 2613   2.664   1.735   0.107
  858SOL     OW 2614   5.388   3.805   2.588
  858SOL    HW1 2615   5.334   3.833   2.513
  858SOL    HW2 2616   5.339   3.728   2.624
  859SOL     OW 2617   5.831   4.285   2.794
  859SOL    HW1 2618   5.746   4.238   2.805
  859SOL    HW2 2619   5.866   4.288   2.885
  860SOL     OW 2620   4.814   3.963   2.081
  860SOL    HW1 2621   4.885   3.913   2.037
  860SOL    HW2 2622   4.804   4.039   2.021
  861SOL     OW 2623   3.155   1.594   0.147
  861SOL    HW1 2624   3.173   1.590   0.051
  861SOL    HW2 2625   3.236   1.635   0.182
  862SOL     OW 2626   3.417   1.916   0.069
  862SOL    HW1 2627   3.443   1.992   0.125
  862SOL    HW2 2628   3.333   1.947   0.030
  863SOL     OW 2629   4.826   4.256   2.782
  863SOL    HW1 2630   4.808   4.301   2.697
  863SOL    HW2 2631   4.914   4.290   2.803
  864SOL     OW 2632   2.485   1.718   0.138
  864SOL    HW1 2633   2.450   1.768   0.062
  864SOL    HW2 2634   2.459   1.627   0.115
  865SOL     OW 2635   5.078   0.037   2.826
  865SOL    HW1 2636   5.158   0.039   2.770
  865SOL    HW2 2637   5.032   0.120   2.800
  866SOL     OW 2638   4.694   3.743   2.465
  866SOL    HW1 2639   4.672   3.836   2.485
  866SOL    HW2 2640   4.686   3.701   2.553
  867SOL     OW 2641   5.896   4.098   2.223
  867SOL    HW1 2642   5.968   4.042   2.259
  867SOL    HW2 2643   5.827   4.085   2.289
  868SOL     OW 2644   1.484   3.982   1.979
  868SOL    HW1 2645   1.453   3.897   2.017
  868SOL    HW2 2646   1.514   4.028   2.059
  869SOL     OW 2647   4.589   4.255   2.936
  869SOL    HW1 2648   4.574   4.158   2.938
  869SOL    HW2 2649   4.668   4.262   2.879
  870SOL     OW 2650   3.356   1.750   0.276
  870SOL    HW1 2651   3.298   1.809   0.325
  870SOL    HW2 2652   3.385   1.805   0.201
  871SOL     OW 2653   4.326   0.003   2.964
  871SOL    HW1 2654   4.421  -0.011   2.946
  871SOL    HW2 2655   4.319  -0.029   3.056
  872SOL     OW 2656   5.078   4.256   2.130
  872SOL    HW1 2657   5.115   4.167   2.133
  872SOL    HW2 2658   5.043   4.270   2.219
  873SOL     OW 2659   5.936   4.287   3.049
  873SOL    HW1 2660   5.904   4.232   3.121
  873SOL    HW2 2661   6.025   4.249   3.032
  874SOL     OW 2662   5.064   4.119   3.052
  874SOL    HW1 2663   5.021   4.039   3.089
  874SOL    HW2 2664   5.038   4.115   2.960
  875SOL     OW 2665   1.755   3.928   2.319
  875SOL    HW1 2666   1.808   3.903   2.240
  875SOL    HW2 2667   1.723   3.842   2.351
  876SOL     OW 2668   6.144   3.875   2.860
  876SOL    HW1 2669   6.180   3.788   2.833
  876SOL    HW2 2670   6.062   3.881   2.807
  877SOL     OW 2671   4.631   4.000   2.502
  877SOL    HW1 2672   4.538   4.027   2.513
  877SOL    HW2 2673   4.664   4.009   2.594
  878SOL     OW 2674   5.390   3.962   2.813
  878SOL    HW1 2675   5.388   3.919   2.725
  878SOL    HW2 2676   5.381   3.883   2.870
  879SOL     OW 2677   3.873   1.911   0.232
  879SOL    HW1 2678   3.963   1.949   0.235
  879SOL    HW2 2679   3.883   1.844   0.163
  880SOL     OW 2680   2.913   1.619   0.264
  880SOL    HW1 2681   2.999   1.612   0.218
  880SOL    HW2 2682   2.860   1.668   0.198
  881SOL     OW 2683   4.428   4.126   1.901
  881SOL    HW1 2684   4.381   4.048   1.935
  881SOL    HW2 2685   4.415   4.120   1.805
  882SOL     OW 2686   4.358   3.896   2.278
  882SOL    HW1 2687   4.340   3.912   2.183
  882SOL    HW2 2688   4.450   3.865   2.274
  883SOL     OW 2689   5.539   4.014   2.356
  883SOL    HW1 2690   5.608   3.945   2.345
  883SOL    HW2 2691   5.588   4.082   2.405
  884SOL     OW 2692   3.914   1.690   0.062
  884SOL    HW1 2693   3.913   1.597   0.035
  884SOL    HW2 2694   3.943   1.730  -0.022
  885SOL     OW 2695   4.658   4.110   2.255
  885SOL    HW1 2696   4.722   4.056   2.206
  885SOL    HW2 2697   4.661   4.071   2.345
  886SOL     OW 2698   2.468   2.111   0.140
  886SOL    HW1 2699   2.566   2.110   0.137
  886SOL    HW2 2700   2.449   2.089   0.047
  887SOL     OW 2701   5.732   3.960   2.937
  887SOL    HW1 2702   5.742   3.866   2.961
  887SOL    HW2 2703   5.684   3.996   3.014
  888SOL     OW 2704   5.369   3.722   2.940
  888SOL    HW1 2705   5.318   3.671   2.875
  888SOL    HW2 2706   5.450   3.668   2.947
  889SOL     OW 2707   5.736   3.740   2.073
  889SOL    HW1 2708   5.781   3.670   2.023
  889SOL    HW2 2709   5.646   3.701   2.083
  890SOL     OW 2710   5.705   4.180   2.503
  890SOL    HW1 2711   5.724   4.276   2.510
  890SOL    HW2 2712   5.665   4.161   2.590
  891SOL     OW 2713   5.907   3.889   2.734
  891SOL    HW1 2714   5.842   3.929   2.795
  891SOL    HW2 2715   5.927   3.963   2.674
  892SOL     OW 2716   2.091   0.663   0.164
  892SOL    HW1 2717   1.995   0.653   0.181
  892SOL    HW2 2718   2.099   0.755   0.138
  893SOL     OW 2719   2.079   0.303   1.033
  893SOL    HW1 2720   2.108   0.267   1.119
  893SOL    HW2 2721   1.985   0.274   1.032
  894SOL     OW 2722   1.861   0.302   0.696
  894SOL    HW1 2723   1.783   0.325   0.750
  894SOL    HW2 2724   1.820   0.289   0.609
  895SOL     OW 2725   2.443   1.320   1.251
  895SOL    HW1 2726   2.363   1.317   1.195
  895SOL    HW2 2727   2.452   1.416   1.265
  896SOL     OW 2728   3.465   1.575   0.684
  896SOL    HW1 2729   3.431   1.539   0.768
  896SOL    HW2 2730   3.382   1.605   0.643
  897SOL     OW 2731   2.987   0.711   0.691
  897SOL    HW1 2732   3.027   0.800   0.687
  897SOL    HW2 2733   2.937   0.716   0.773
  898SOL     OW 2734   2.589   1.126   1.124
  898SOL    HW1 2735   2.533   1.182   1.182
  898SOL    HW2 2736   2.621   1.196   1.063
  899SOL     OW 2737   2.764   0.716   1.791
  899SOL    HW1 2738   2.800   0.776   1.859
  899SOL    HW2 2739   2.771   0.774   1.712
  900SOL     OW 2740   2.520   0.909   0.738
  900SOL    HW1 2741   2.595   0.943   0.789
  900SOL    HW2 2742   2.471   0.990   0.718
  901SOL     OW 2743   2.552   1.144   1.845
  901SOL    HW1 2744   2.586   1.228   1.882
  901SOL    HW2 2745   2.479   1.176   1.790
  902SOL     OW 2746   2.227   1.372   1.084
  902SOL    HW1 2747   2.173   1.312   1.030
  902SOL    HW2 2748   2.266   1.431   1.017
  903SOL     OW 2749   3.289   1.507   1.369
  903SOL    HW1 2750   3.345   1.585   1.388
  903SOL    HW2 2751   3.215   1.519   1.431
  904SOL     OW 2752   2.230   0.293   1.552
  904SOL    HW1 2753   2.324   0.273   1.534
  904SOL    HW2 2754   2.224   0.278   1.648
  905SOL     OW 2755   3.431   0.519   0.704
  905SOL    HW1 2756   3.335   0.510   0.693
  905SOL    HW2 2757   3.452   0.576   0.627
  906SOL     OW 2758   2.117   1.706   0.451
  906SOL    HW1 2759   2.130   1.784   0.509
  906SOL    HW2 2760   2.209   1.685   0.426
  907SOL     OW 2761   2.947   1.319   1.670
  907SOL    HW1 2762   2.999   1.269   1.604
  907SOL    HW2 2763   2.901   1.246   1.715
  908SOL     OW 2764   1.977   1.491   0.560
  908SOL    HW1 2765   2.023   1.570   0.524
  908SOL    HW2 2766   1.947   1.523   0.647
  909SOL     OW 2767   2.152   1.073   0.871
  909SOL    HW1 2768   2.174   0.982   0.896
  909SOL    HW2 2769   2.097   1.101   0.946
  910SOL     OW 2770   2.401   1.847   1.378
  910SOL    HW1 2771   2.332   1.824   1.444
  910SOL    HW2 2772   2.455   1.911   1.428
  911SOL     OW 2773   3.404   0.173   1.374
  911SOL    HW1 2774   3.343   0.096   1.378
  911SOL    HW2 2775   3.390   0.213   1.461
  912SOL     OW 2776   1.980   0.704   0.577
  912SOL    HW1 2777   1.965   0.610   0.593
  912SOL    HW2 2778   1.971   0.741   0.667
  913SOL     OW 2779   1.950   1.567   0.021
  913SOL    HW1 2780   1.927   1.483   0.064
  913SOL    HW2 2781   1.941   1.629   0.096
  914SOL     OW 2782   3.552   0.955   0.690
  914SOL    HW1 2783   3.575   0.908   0.608
  914SOL    HW2 2784   3.557   1.048   0.663
  915SOL     OW 2785   2.068   0.749   1.588
  915SOL    HW1 2786   2.164   0.757   1.608
  915SOL    HW2 2787   2.034   0.833   1.623
  916SOL     OW 2788   2.495   1.370   0.753
  916SOL    HW1 2789   2.454   1.284   0.730
  916SOL    HW2 2790   2.515   1.407   0.665
  917SOL     OW 2791   3.082   1.199   1.469
  917SOL    HW1 2792   3.095   1.137   1.395
  917SOL    HW2 2793   3.169   1.195   1.513
  918SOL     OW 2794   2.717   0.208   0.600
  918SOL    HW1 2795   2.700   0.304   0.605
  918SOL    HW2 2796   2.638   0.176   0.553
  919SOL     OW 2797   2.055   0.997   1.304
  919SOL    HW1 2798   2.135   0.941   1.300
  919SOL    HW2 2799   2.047   1.031   1.214
  920SOL     OW 2800   2.990   1.780   1.629
  920SOL    HW1 2801   3.014   1.849   1.565
  920SOL    HW2 2802   3.021   1.699   1.585
  921SOL     OW 2803   2.187   0.260   1.823
  921SOL    HW1 2804   2.234   0.330   1.873
  921SOL    HW2 2805   2.160   0.201   1.895
  922SOL     OW 2806   3.364   1.473   0.915
  922SOL    HW1 2807   3.294   1.485   0.982
  922SOL    HW2 2808   3.357   1.378   0.893
  923SOL     OW 2809   3.561   1.729   0.469
  923SOL    HW1 2810   3.487   1.719   0.406
  923SOL    HW2 2811   3.532   1.674   0.544
  924SOL     OW 2812   3.141   0.414   0.951
  924SOL    HW1 2813   3.055   0.369   0.958
  924SOL    HW2 2814   3.195   0.364   1.014
  925SOL     OW 2815   2.657   0.637   1.437
  925SOL    HW1 2816   2.620   0.595   1.518
  925SOL    HW2 2817   2.635   0.573   1.367
  926SOL     OW 2818   3.236   0.456   1.655
  926SOL    HW1 2819   3.239   0.495   1.745
  926SOL    HW2 2820   3.299   0.382   1.663
  927SOL     OW 2821   2.807   0.899   1.585
  927SOL    HW1 2822   2.866   0.840   1.534
  927SOL    HW2 2823   2.762   0.947   1.513
  928SOL     OW 2824   2.873   0.451   1.196
  928SOL    HW1 2825   2.779   0.471   1.206
  928SOL    HW2 2826   2.874   0.399   1.114
  929SOL     OW 2827   2.986   0.707   0.415
  929SOL    HW1 2828   2.978   0.702   0.512
  929SOL    HW2 2829   2.930   0.782   0.393
  930SOL     OW 2830   1.956   0.801   0.828
  930SOL    HW1 2831   2.042   0.808   0.874
  930SOL    HW2 2832   1.902   0.866   0.875
  931SOL     OW 2833   1.954   1.885   1.583
  931SOL    HW1 2834   1.955   1.849   1.674
  931SOL    HW2 2835   1.858   1.897   1.568
  932SOL     OW 2836   3.636   0.595   1.759
  932SOL    HW1 2837   3.570   0.666   1.743
  932SOL    HW2 2838   3.718   0.641   1.732
  933SOL     OW 2839   3.201   1.203   0.627
  933SOL    HW1 2840   3.242   1.194   0.539
  933SOL    HW2 2841   3.130   1.266   0.609
  934SOL     OW 2842   2.505   0.261   0.989
  934SOL    HW1 2843   2.464   0.281   1.074
  934SOL    HW2 2844   2.469   0.331   0.931
  935SOL     OW 2845   2.971   1.579   0.527
  935SOL    HW1 2846   2.957   1.598   0.432
  935SOL    HW2 2847   2.885   1.603   0.565
  936SOL     OW 2848   2.218   1.785   0.866
  936SOL    HW1 2849   2.259   1.697   0.873
  936SOL    HW2 2850   2.292   1.844   0.891
  937SOL     OW 2851   3.663   1.007   0.934
  937SOL    HW1 2852   3.619   0.991   0.848
  937SOL    HW2 2853   3.587   1.035   0.989
  938SOL     OW 2854   3.049   1.533   1.512
  938SOL    HW1 2855   3.031   1.470   1.583
  938SOL    HW2 2856   2.991   1.500   1.442
  939SOL     OW 2857   3.312   0.827   0.758
  939SOL    HW1 2858   3.320   0.763   0.831
  939SOL    HW2 2859   3.404   0.858   0.745
  940SOL     OW 2860   2.348   1.279   1.723
  940SOL    HW1 2861   2.310   1.280   1.633
  940SOL    HW2 2862   2.267   1.298   1.775
  941SOL     OW 2863   1.992   0.140   1.660
  941SOL    HW1 2864   1.986   0.210   1.592
  941SOL    HW2 2865   2.054   0.180   1.723
  942SOL     OW 2866   2.393   1.688   0.393
  942SOL    HW1 2867   2.414   1.775   0.434
  942SOL    HW2 2868   2.425   1.701   0.302
  943SOL     OW 2869   2.067   1.781   1.215
  943SOL    HW1 2870   2.131   1.712   1.237
  943SOL    HW2 2871   2.049   1.765   1.121
  944SOL     OW 2872   2.822   1.699   0.894
  944SOL    HW1 2873   2.903   1.646   0.897
  944SOL    HW2 2874   2.783   1.667   0.810
  945SOL     OW 2875   2.249   0.694   0.494
  945SOL    HW1 2876   2.246   0.598   0.514
  945SOL    HW2 2877   2.157   0.719   0.514
  946SOL     OW 2878   3.412   0.240   1.694
  946SOL    HW1 2879   3.406   0.264   1.789
  946SOL    HW2 2880   3.417   0.144   1.702
  947SOL     OW 2881   2.571   0.299   1.755
  947SOL    HW1 2882   2.660   0.263   1.773
  947SOL    HW2 2883   2.519   0.246   1.818
  948SOL     OW 2884   2.696   1.521   1.202
  948SOL    HW1 2885   2.678   1.468   1.122
  948SOL    HW2 2886   2.773   1.476   1.240
  949SOL     OW 2887   3.187   0.601   1.428
  949SOL    HW1 2888   3.215   0.565   1.514
  949SOL    HW2 2889   3.220   0.693   1.429
  950SOL     OW 2890   2.652   1.351   0.982
  950SOL    HW1 2891   2.743   1.352   0.946
  950SOL    HW2 2892   2.599   1.362   0.901
  951SOL     OW 2893   2.784   0.505   0.865
  951SOL    HW1 2894   2.755   0.490   0.774
  951SOL    HW2 2895   2.811   0.417   0.894
  952SOL     OW 2896   2.505   0.121   0.454
  952SOL    HW1 2897   2.435   0.100   0.519
  952SOL    HW2 2898   2.480   0.211   0.425
  953SOL     OW 2899   2.939   0.719   1.433
  953SOL    HW1 2900   2.875   0.646   1.435
  953SOL    HW2 2901   3.024   0.674   1.424
  954SOL     OW 2902   3.042   1.551   0.790
  954SOL    HW1 2903   3.022   1.558   0.695
  954SOL    HW2 2904   3.133   1.585   0.793
  955SOL     OW 2905   2.358   1.137   0.700
  955SOL    HW1 2906   2.288   1.119   0.766
  955SOL    HW2 2907   2.307   1.131   0.617
  956SOL     OW 2908   3.111   1.902   0.611
  956SOL    HW1 2909   3.108   1.984   0.559
  956SOL    HW2 2910   3.038   1.914   0.673
  957SOL     OW 2911   1.988   0.569   1.396
  957SOL    HW1 2912   2.077   0.560   1.357
  957SOL    HW2 2913   2.004   0.639   1.461
  958SOL     OW 2914   2.405   0.324   1.249
  958SOL    HW1 2915   2.445   0.283   1.328
  958SOL    HW2 2916   2.317   0.282   1.248
  959SOL     OW 2917   2.682   0.480   0.604
  959SOL    HW1 2918   2.609   0.544   0.618
  959SOL    HW2 2919   2.706   0.498   0.512
  960SOL     OW 2920   2.829   0.082   0.807
  960SOL    HW1 2921   2.787   0.127   0.731
  960SOL    HW2 2922   2.889   0.020   0.763
  961SOL     OW 2923   3.373   1.215   0.838
  961SOL    HW1 2924   3.304   1.200   0.770
  961SOL    HW2 2925   3.454   1.215   0.782
  962SOL     OW 2926   3.279   0.659   0.977
  962SOL    HW1 2927   3.230   0.575   0.968
  962SOL    HW2 2928   3.349   0.636   1.041
  963SOL     OW 2929   3.795   0.729   0.347
  963SOL    HW1 2930   3.802   0.704   0.441
  963SOL    HW2 2931   3.714   0.683   0.319
  964SOL     OW 2932   3.589   1.228   0.667
  964SOL    HW1 2933   3.687   1.223   0.671
  964SOL    HW2 2934   3.575   1.303   0.608
  965SOL     OW 2935   2.461   0.379   0.390
  965SOL    HW1 2936   2.545   0.418   0.362
  965SOL    HW2 2937   2.398   0.420   0.327
  966SOL     OW 2938   3.572   1.242   1.506
  966SOL    HW1 2939   3.661   1.204   1.496
  966SOL    HW2 2940   3.595   1.332   1.538
  967SOL     OW 2941   2.889   1.360   1.349
  967SOL    HW1 2942   2.803   1.334   1.388
  967SOL    HW2 2943   2.951   1.300   1.395
  968SOL     OW 2944   3.465   1.607   1.662
  968SOL    HW1 2945   3.452   1.658   1.580
  968SOL    HW2 2946   3.546   1.558   1.641
  969SOL     OW 2947   3.031   1.276   1.130
  969SOL    HW1 2948   2.968   1.309   1.197
  969SOL    HW2 2949   2.983   1.293   1.047
  970SOL     OW 2950   3.450   1.099   1.076
  970SOL    HW1 2951   3.444   1.173   1.139
  970SOL    HW2 2952   3.406   1.137   0.997
  971SOL     OW 2953   2.726   0.173   1.387
  971SOL    HW1 2954   2.744   0.141   1.297
  971SOL    HW2 2955   2.816   0.176   1.424
  972SOL     OW 2956   2.819   1.097   1.771
  972SOL    HW1 2957   2.725   1.108   1.794
  972SOL    HW2 2958   2.815   1.029   1.700
  973SOL     OW 2959   2.279   0.841   1.297
  973SOL    HW1 2960   2.349   0.849   1.365
  973SOL    HW2 2961   2.261   0.745   1.298
  974SOL     OW 2962   3.106   0.381   1.303
  974SOL    HW1 2963   3.137   0.464   1.346
  974SOL    HW2 2964   3.022   0.412   1.262
  975SOL     OW 2965   1.925   1.553   1.345
  975SOL    HW1 2966   1.913   1.644   1.314
  975SOL    HW2 2967   2.022   1.545   1.343
  976SOL     OW 2968   2.190   1.123   0.480
  976SOL    HW1 2969   2.155   1.203   0.437
  976SOL    HW2 2970   2.231   1.077   0.405
  977SOL     OW 2971   2.406   0.485   0.858
  977SOL    HW1 2972   2.414   0.520   0.768
  977SOL    HW2 2973   2.464   0.548   0.907
  978SOL     OW 2974   3.190   1.496   1.118
  978SOL    HW1 2975   3.227   1.500   1.208
  978SOL    HW2 2976   3.138   1.414   1.122
  979SOL     OW 2977   3.482   0.652   0.471
  979SOL    HW1 2978   3.396   0.686   0.438
  979SOL    HW2 2979   3.522   0.622   0.388
  980SOL     OW 2980   2.188   1.524   1.303
  980SOL    HW1 2981   2.196   1.466   1.224
  980SOL    HW2 2982   2.281   1.553   1.312
  981SOL     OW 2983   2.336   0.750   1.660
  981SOL    HW1 2984   2.388   0.799   1.594
  981SOL    HW2 2985   2.397   0.677   1.682
  982SOL     OW 2986   3.484   0.806   1.703
  982SOL    HW1 2987   3.391   0.835   1.701
  982SOL    HW2 2988   3.519   0.853   1.624
  983SOL     OW 2989   2.796   0.160   1.820
  983SOL    HW1 2990   2.877   0.185   1.772
  983SOL    HW2 2991   2.783   0.067   1.797
  984SOL     OW 2992   2.468   4.300   1.653
  984SOL    HW1 2993   2.419   4.229   1.606
  984SOL    HW2 2994   2.466   4.372   1.589
  985SOL     OW 2995   2.434   0.898   1.077
  985SOL    HW1 2996   2.486   0.979   1.090
  985SOL    HW2 2997   2.383   0.892   1.160
  986SOL     OW 2998   3.100   0.852   1.057
  986SOL    HW1 2999   3.023   0.819   1.009
  986SOL    HW2 3000   3.171   0.793   1.025
  987SOL     OW 3001   3.078   0.504   0.239
  987SOL    HW1 3002   3.025   0.424   0.250
  987SOL    HW2 3003   3.034   0.567   0.299
  988SOL     OW 3004   2.160   0.221   1.291
  988SOL    HW1 3005   2.161   0.254   1.383
  988SOL    HW2 3006   2.167   0.124   1.306
  989SOL     OW 3007   1.870   1.293   1.278
  989SOL    HW1 3008   1.904   1.250   1.358
  989SOL    HW2 3009   1.889   1.387   1.297
  990SOL     OW 3010   2.548   0.664   0.999
  990SOL    HW1 3011   2.622   0.687   0.942
  990SOL    HW2 3012   2.511   0.752   1.022
  991SOL     OW 3013   3.601   0.984   1.876
  991SOL    HW1 3014   3.556   0.916   1.822
  991SOL    HW2 3015   3.534   1.003   1.944
  992SOL     OW 3016   2.306   0.084   0.635
  992SOL    HW1 3017   2.238   0.142   0.673
  992SOL    HW2 3018   2.254   0.008   0.601
  993SOL     OW 3019   2.861   0.745   0.954
  993SOL    HW1 3020   2.836   0.749   1.049
  993SOL    HW2 3021   2.838   0.652   0.931
  994SOL     OW 3022   2.844   1.524   1.817
  994SOL    HW1 3023   2.823   1.597   1.758
  994SOL    HW2 3024   2.872   1.454   1.755
  995SOL     OW 3025   3.693   1.484   1.563
  995SOL    HW1 3026   3.733   1.512   1.478
  995SOL    HW2 3027   3.766   1.507   1.624
  996SOL     OW 3028   2.220   0.928   1.838
  996SOL    HW1 3029   2.289   0.953   1.902
  996SOL    HW2 3030   2.266   0.863   1.782
  997SOL     OW 3031   2.907   1.346   0.901
  997SOL    HW1 3032   2.909   1.274   0.834
  997SOL    HW2 3033   2.960   1.416   0.858
  998SOL     OW 3034   2.197   0.818   0.958
  998SOL    HW1 3035   2.287   0.842   0.988
  998SOL    HW2 3036   2.195   0.722   0.978
  999SOL     OW 3037   2.194   0.546   1.012
  999SOL    HW1 3038   2.142   0.463   1.014
  999SOL    HW2 3039   2.266   0.522   0.950
 1000SOL     OW 3040   2.993   0.321   1.682
 1000SOL    HW1 3041   2.951   0.378   1.750
 1000SOL    HW2 3042   3.077   0.368   1.669
 1001SOL     OW 3043   3.002   0.181   1.449
 1001SOL    HW1 3044   2.995   0.223   1.537
 1001SOL    HW2 3045   3.042   0.254   1.396
 1002SOL     OW 3046   1.862   1.345   0.170
 1002SOL    HW1 3047   1.770   1.373   0.149
 1002SOL    HW2 3048   1.848   1.252   0.194
 1003SOL     OW 3049   1.963   1.757   0.953
 1003SOL    HW1 3050   1.929   1.690   0.891
 1003SOL    HW2 3051   2.053   1.772   0.916
 1004SOL     OW 3052   2.346   1.539   0.907
 1004SOL    HW1 3053   2.421   1.597   0.935
 1004SOL    HW2 3054   2.392   1.479   0.846
 1005SOL     OW 3055   2.784   0.780   1.209
 1005SOL    HW1 3056   2.860   0.787   1.269
 1005SOL    HW2 3057   2.718   0.739   1.267
 1006SOL     OW 3058   1.825   0.642   1.182
 1006SOL    HW1 3059   1.894   0.645   1.114
 1006SOL    HW2 3060   1.875   0.615   1.261
 1007SOL     OW 3061   2.038   0.521   1.728
 1007SOL    HW1 3062   2.106   0.469   1.683
 1007SOL    HW2 3063   2.040   0.605   1.678
 1008SOL     OW 3064   3.240   0.918   1.670
 1008SOL    HW1 3065   3.259   1.013   1.661
 1008SOL    HW2 3066   3.230   0.893   1.575
 1009SOL     OW 3067   3.466   0.602   1.169
 1009SOL    HW1 3068   3.421   0.565   1.247
 1009SOL    HW2 3069   3.550   0.553   1.169
 1010SOL     OW 3070   2.075   1.562   1.681
 1010SOL    HW1 3071   2.051   1.632   1.745
 1010SOL    HW2 3072   2.101   1.488   1.740
 1011SOL     OW 3073   2.606   0.502   1.211
 1011SOL    HW1 3074   2.536   0.435   1.211
 1011SOL    HW2 3075   2.584   0.555   1.131
 1012SOL     OW 3076   2.679   1.724   1.532
 1012SOL    HW1 3077   2.674   1.654   1.466
 1012SOL    HW2 3078   2.720   1.797   1.482
 1013SOL     OW 3079   2.284   0.483   0.212
 1013SOL    HW1 3080   2.340   0.542   0.158
 1013SOL    HW2 3081   2.201   0.535   0.211
 1014SOL     OW 3082   1.966   1.151   1.500
 1014SOL    HW1 3083   1.981   1.098   1.581
 1014SOL    HW2 3084   2.004   1.091   1.432
 1015SOL     OW 3085   3.114   1.042   1.246
 1015SOL    HW1 3086   3.109   0.974   1.176
 1015SOL    HW2 3087   3.095   1.123   1.194
 1016SOL     OW 3088   3.253   0.706   0.338
 1016SOL    HW1 3089   3.168   0.724   0.381
 1016SOL    HW2 3090   3.229   0.632   0.280
 1017SOL     OW 3091   3.639   1.756   1.162
 1017SOL    HW1 3092   3.705   1.777   1.094
 1017SOL    HW2 3093   3.620   1.662   1.140
 1018SOL     OW 3094   3.126   1.763   1.090
 1018SOL    HW1 3095   3.217   1.797   1.082
 1018SOL    HW2 3096   3.141   1.667   1.097
 1019SOL     OW 3097   1.982   1.138   1.070
 1019SOL    HW1 3098   1.938   1.198   1.133
 1019SOL    HW2 3099   1.907   1.097   1.023
 1020SOL     OW 3100   2.548   1.699   1.764
 1020SOL    HW1 3101   2.480   1.769   1.757
 1020SOL    HW2 3102   2.601   1.716   1.683
 1021SOL     OW 3103   3.576   0.199   0.580
 1021SOL    HW1 3104   3.585   0.155   0.492
 1021SOL    HW2 3105   3.492   0.164   0.613
 1022SOL     OW 3106   3.231   1.662   0.589
 1022SOL    HW1 3107   3.155   1.622   0.544
 1022SOL    HW2 3108   3.199   1.754   0.600
 1023SOL     OW 3109   1.989   1.778   1.830
 1023SOL    HW1 3110   1.950   1.708   1.886
 1023SOL    HW2 3111   2.035   1.832   1.896
 1024SOL     OW 3112   3.097   0.958   0.682
 1024SOL    HW1 3113   3.178   0.908   0.711
 1024SOL    HW2 3114   3.137   1.043   0.656
 1025SOL     OW 3115   2.643   1.293   1.438
 1025SOL    HW1 3116   2.617   1.347   1.516
 1025SOL    HW2 3117   2.566   1.305   1.380
 1026SOL     OW 3118   3.453   1.723   1.407
 1026SOL    HW1 3119   3.522   1.726   1.340
 1026SOL    HW2 3120   3.428   1.818   1.412
 1027SOL     OW 3121   3.684   0.215   1.014
 1027SOL    HW1 3122   3.705   0.148   0.947
 1027SOL    HW2 3123   3.601   0.252   0.975
 1028SOL     OW 3124   2.129   0.259   0.753
 1028SOL    HW1 3125   2.041   0.293   0.727
 1028SOL    HW2 3126   2.130   0.277   0.849
 1029SOL     OW 3127   2.677   1.032   1.387
 1029SOL    HW1 3128   2.678   1.040   1.291
 1029SOL    HW2 3129   2.669   1.126   1.414
 1030SOL     OW 3130   2.206   1.306   1.498
 1030SOL    HW1 3131   2.194   1.385   1.442
 1030SOL    HW2 3132   2.118   1.265   1.498
 1031SOL     OW 3133   3.445   1.308   1.258
 1031SOL    HW1 3134   3.496   1.280   1.335
 1031SOL    HW2 3135   3.384   1.373   1.297
 1032SOL     OW 3136   2.895   1.133   0.741
 1032SOL    HW1 3137   2.827   1.080   0.787
 1032SOL    HW2 3138   2.960   1.066   0.717
 1033SOL     OW 3139   2.903   0.271   0.986
 1033SOL    HW1 3140   2.878   0.207   0.916
 1033SOL    HW2 3141   2.910   0.209   1.062
 1034SOL     OW 3142   2.549   1.490   0.510
 1034SOL    HW1 3143   2.601   1.454   0.436
 1034SOL    HW2 3144   2.485   1.548   0.464
 1035SOL     OW 3145   2.065   1.332   0.356
 1035SOL    HW1 3146   1.996   1.352   0.291
 1035SOL    HW2 3147   2.038   1.388   0.431
 1036SOL     OW 3148   1.983   0.984   1.713
 1036SOL    HW1 3149   1.909   0.986   1.777
 1036SOL    HW2 3150   2.061   0.975   1.772
 1037SOL     OW 3151   2.493   0.223   1.504
 1037SOL    HW1 3152   2.578   0.201   1.460
 1037SOL    HW2 3153   2.525   0.259   1.589
 1038SOL     OW 3154   1.943   0.387   0.052
 1038SOL    HW1 3155   1.894   0.350  -0.024
 1038SOL    HW2 3156   2.032   0.395   0.017
 1039SOL     OW 3157   3.247   0.864   1.405
 1039SOL    HW1 3158   3.188   0.923   1.354
 1039SOL    HW2 3159   3.329   0.871   1.353
 1040SOL     OW 3160   1.909   0.223   0.270
 1040SOL    HW1 3161   1.925   0.288   0.200
 1040SOL    HW2 3162   1.921   0.139   0.222
 1041SOL     OW 3163   2.492   0.850   1.463
 1041SOL    HW1 3164   2.549   0.927   1.445
 1041SOL    HW2 3165   2.556   0.777   1.456
 1042SOL     OW 3166   3.385   1.852   1.070
 1042SOL    HW1 3167   3.416   1.907   0.996
 1042SOL    HW2 3168   3.468   1.817   1.106
 1043SOL     OW 3169   2.552   0.567   1.684
 1043SOL    HW1 3170   2.621   0.612   1.736
 1043SOL    HW2 3171   2.555   0.476   1.719
 1044SOL     OW 3172   3.315   1.178   1.615
 1044SOL    HW1 3173   3.319   1.205   1.709
 1044SOL    HW2 3174   3.402   1.206   1.582
 1045SOL     OW 3175   2.210   1.780   1.567
 1045SOL    HW1 3176   2.123   1.822   1.558
 1045SOL    HW2 3177   2.185   1.690   1.593
 1046SOL     OW 3178   3.463   0.883   1.244
 1046SOL    HW1 3179   3.475   0.802   1.191
 1046SOL    HW2 3180   3.457   0.953   1.176
 1047SOL     OW 3181   3.107   0.250   0.546
 1047SOL    HW1 3182   3.166   0.246   0.468
 1047SOL    HW2 3183   3.133   0.333   0.589
 1048SOL     OW 3184   2.480   0.659   0.647
 1048SOL    HW1 3185   2.500   0.749   0.680
 1048SOL    HW2 3186   2.404   0.677   0.590
 1049SOL     OW 3187   3.593   0.401   1.561
 1049SOL    HW1 3188   3.600   0.473   1.626
 1049SOL    HW2 3189   3.535   0.338   1.608
 1050SOL     OW 3190   3.552   0.951   1.492
 1050SOL    HW1 3191   3.549   1.047   1.489
 1050SOL    HW2 3192   3.533   0.927   1.399
 1051SOL     OW 3193   2.542   1.713   0.953
 1051SOL    HW1 3194   2.519   1.807   0.941
 1051SOL    HW2 3195   2.639   1.713   0.951
 1052SOL     OW 3196   2.729   0.982   0.902
 1052SOL    HW1 3197   2.783   0.903   0.923
 1052SOL    HW2 3198   2.701   1.012   0.990
 1053SOL     OW 3199   3.702   1.578   0.835
 1053SOL    HW1 3200   3.628   1.574   0.772
 1053SOL    HW2 3201   3.666   1.533   0.913
 1054SOL     OW 3202   2.116   1.347   1.849
 1054SOL    HW1 3203   2.026   1.312   1.859
 1054SOL    HW2 3204   2.141   1.357   1.943
 1055SOL     OW 3205   1.980   1.104   0.657
 1055SOL    HW1 3206   2.035   1.092   0.736
 1055SOL    HW2 3207   2.048   1.104   0.587
 1056SOL     OW 3208   2.554   1.442   1.641
 1056SOL    HW1 3209   2.481   1.391   1.681
 1056SOL    HW2 3210   2.551   1.525   1.691
 1057SOL     OW 3211   3.671   0.175   1.313
 1057SOL    HW1 3212   3.575   0.165   1.331
 1057SOL    HW2 3213   3.676   0.149   1.220
 1058SOL     OW 3214   2.255   0.438   0.573
 1058SOL    HW1 3215   2.329   0.399   0.524
 1058SOL    HW2 3216   2.228   0.368   0.634
 1059SOL     OW 3217   3.579   1.504   1.079
 1059SOL    HW1 3218   3.497   1.494   1.027
 1059SOL    HW2 3219   3.575   1.427   1.138
 1060SOL     OW 3220   2.239   0.568   1.278
 1060SOL    HW1 3221   2.302   0.496   1.289
 1060SOL    HW2 3222   2.223   0.565   1.181
 1061SOL     OW 3223   2.734   1.643   0.643
 1061SOL    HW1 3224   2.707   1.733   0.616
 1061SOL    HW2 3225   2.662   1.588   0.605
 1062SOL     OW 3226   3.308   0.308   1.142
 1062SOL    HW1 3227   3.358   0.248   1.199
 1062SOL    HW2 3228   3.235   0.333   1.202
 1063SOL     OW 3229   2.919   0.091   1.186
 1063SOL    HW1 3230   2.917  -0.005   1.169
 1063SOL    HW2 3231   2.963   0.097   1.272
 1064SOL     OW 3232   2.449   1.594   1.286
 1064SOL    HW1 3233   2.444   1.687   1.314
 1064SOL    HW2 3234   2.540   1.588   1.250
 1065SOL     OW 3235   3.159   0.487   0.687
 1065SOL    HW1 3236   3.101   0.565   0.680
 1065SOL    HW2 3237   3.146   0.461   0.780
 1066SOL     OW 3238   3.464   0.328   0.906
 1066SOL    HW1 3239   3.402   0.342   0.980
 1066SOL    HW2 3240   3.448   0.404   0.848
 1067SOL     OW 3241   1.871   1.083   0.286
 1067SOL    HW1 3242   1.966   1.099   0.289
 1067SOL    HW2 3243   1.867   0.986   0.301
 1068SOL     OW 3244   2.089   0.600   1.988
 1068SOL    HW1 3245   2.000   0.602   2.026
 1068SOL    HW2 3246   2.070   0.585   1.894
 1069SOL     OW 3247   2.066   0.325   2.889
 1069SOL    HW1 3248   2.110   0.260   2.947
 1069SOL    HW2 3249   1.978   0.285   2.879
 1070SOL     OW 3250   1.841   0.487   2.524
 1070SOL    HW1 3251   1.749   0.503   2.552
 1070SOL    HW2 3252   1.830   0.407   2.470
 1071SOL     OW 3253   2.433   1.309   3.044
 1071SOL    HW1 3254   2.356   1.335   2.990
 1071SOL    HW2 3255   2.448   1.389   3.096
 1072SOL     OW 3256   3.461   1.563   2.550
 1072SOL    HW1 3257   3.408   1.537   2.628
 1072SOL    HW2 3258   3.391   1.574   2.482
 1073SOL     OW 3259   3.008   0.700   2.538
 1073SOL    HW1 3260   3.057   0.784   2.527
 1073SOL    HW2 3261   2.955   0.719   2.617
 1074SOL     OW 3262   3.665   0.606   2.042
 1074SOL    HW1 3263   3.642   0.608   1.948
 1074SOL    HW2 3264   3.610   0.533   2.076
 1075SOL     OW 3265   2.588   1.111   2.946
 1075SOL    HW1 3266   2.522   1.170   2.989
 1075SOL    HW2 3267   2.626   1.175   2.882
 1076SOL     OW 3268   2.558   0.966   2.509
 1076SOL    HW1 3269   2.628   0.972   2.577
 1076SOL    HW2 3270   2.498   1.039   2.534
 1077SOL     OW 3271   2.213   1.414   2.912
 1077SOL    HW1 3272   2.139   1.368   2.869
 1077SOL    HW2 3273   2.246   1.474   2.842
 1078SOL     OW 3274   3.427   0.516   2.521
 1078SOL    HW1 3275   3.331   0.498   2.525
 1078SOL    HW2 3276   3.432   0.568   2.439
 1079SOL     OW 3277   2.098   1.745   2.314
 1079SOL    HW1 3278   2.122   1.815   2.379
 1079SOL    HW2 3279   2.170   1.753   2.250
 1080SOL     OW 3280   2.096   1.474   2.344
 1080SOL    HW1 3281   2.092   1.571   2.353
 1080SOL    HW2 3282   2.067   1.442   2.431
 1081SOL     OW 3283   2.184   1.114   2.727
 1081SOL    HW1 3284   2.192   1.021   2.758
 1081SOL    HW2 3285   2.125   1.153   2.794
 1082SOL     OW 3286   2.424   0.989   2.038
 1082SOL    HW1 3287   2.473   1.035   1.968
 1082SOL    HW2 3288   2.478   1.012   2.116
 1083SOL     OW 3289   1.994   0.698   2.430
 1083SOL    HW1 3290   1.943   0.622   2.464
 1083SOL    HW2 3291   1.992   0.759   2.506
 1084SOL     OW 3292   3.682   1.778   2.167
 1084SOL    HW1 3293   3.762   1.777   2.223
 1084SOL    HW2 3294   3.689   1.867   2.127
 1085SOL     OW 3295   1.912   1.574   1.981
 1085SOL    HW1 3296   1.894   1.480   1.996
 1085SOL    HW2 3297   1.887   1.614   2.066
 1086SOL     OW 3298   3.575   0.947   2.462
 1086SOL    HW1 3299   3.621   0.889   2.398
 1086SOL    HW2 3300   3.540   1.016   2.403
 1087SOL     OW 3301   3.510   1.139   2.276
 1087SOL    HW1 3302   3.596   1.120   2.233
 1087SOL    HW2 3303   3.530   1.226   2.319
 1088SOL     OW 3304   2.502   1.409   2.579
 1088SOL    HW1 3305   2.462   1.320   2.578
 1088SOL    HW2 3306   2.492   1.434   2.485
 1089SOL     OW 3307   0.963   3.404   0.098
 1089SOL    HW1 3308   1.025   3.340   0.137
 1089SOL    HW2 3309   0.927   3.447   0.178
 1090SOL     OW 3310   2.667   0.041   2.360
 1090SOL    HW1 3311   2.721   0.122   2.345
 1090SOL    HW2 3312   2.577   0.076   2.371
 1091SOL     OW 3313   3.394   1.021   2.060
 1091SOL    HW1 3314   3.343   0.948   2.100
 1091SOL    HW2 3315   3.430   1.066   2.138
 1092SOL     OW 3316   3.294   1.469   2.743
 1092SOL    HW1 3317   3.253   1.470   2.831
 1092SOL    HW2 3318   3.288   1.374   2.720
 1093SOL     OW 3319   3.480   1.856   2.394
 1093SOL    HW1 3320   3.474   1.796   2.318
 1093SOL    HW2 3321   3.499   1.795   2.467
 1094SOL     OW 3322   2.445   0.663   2.131
 1094SOL    HW1 3323   2.447   0.754   2.102
 1094SOL    HW2 3324   2.378   0.665   2.202
 1095SOL     OW 3325   3.158   0.333   2.795
 1095SOL    HW1 3326   3.064   0.306   2.789
 1095SOL    HW2 3327   3.176   0.314   2.889
 1096SOL     OW 3328   3.424   1.702   2.157
 1096SOL    HW1 3329   3.521   1.719   2.151
 1096SOL    HW2 3330   3.408   1.654   2.074
 1097SOL     OW 3331   2.913   0.678   2.280
 1097SOL    HW1 3332   2.935   0.675   2.375
 1097SOL    HW2 3333   2.828   0.631   2.276
 1098SOL     OW 3334   1.975   0.872   2.639
 1098SOL    HW1 3335   2.060   0.864   2.685
 1098SOL    HW2 3336   1.925   0.930   2.700
 1099SOL     OW 3337   2.760   0.327   2.049
 1099SOL    HW1 3338   2.807   0.388   1.989
 1099SOL    HW2 3339   2.752   0.249   1.993
 1100SOL     OW 3340   3.261   1.154   2.408
 1100SOL    HW1 3341   3.342   1.154   2.355
 1100SOL    HW2 3342   3.209   1.227   2.367
 1101SOL     OW 3343   2.374   0.245   2.753
 1101SOL    HW1 3344   2.295   0.225   2.702
 1101SOL    HW2 3345   2.380   0.342   2.744
 1102SOL     OW 3346   2.874   1.474   2.346
 1102SOL    HW1 3347   2.853   1.547   2.285
 1102SOL    HW2 3348   2.831   1.507   2.428
 1103SOL     OW 3349   2.200   1.821   2.737
 1103SOL    HW1 3350   2.249   1.736   2.737
 1103SOL    HW2 3351   2.271   1.887   2.748
 1104SOL     OW 3352   3.713   1.080   2.661
 1104SOL    HW1 3353   3.661   1.036   2.590
 1104SOL    HW2 3354   3.641   1.109   2.721
 1105SOL     OW 3355   2.170   0.962   2.157
 1105SOL    HW1 3356   2.255   0.976   2.110
 1105SOL    HW2 3357   2.156   0.867   2.144
 1106SOL     OW 3358   3.377   0.812   2.600
 1106SOL    HW1 3359   3.411   0.722   2.608
 1106SOL    HW2 3360   3.454   0.860   2.563
 1107SOL     OW 3361   3.054   1.755   2.110
 1107SOL    HW1 3362   2.963   1.739   2.140
 1107SOL    HW2 3363   3.067   1.683   2.046
 1108SOL     OW 3364   3.536   1.365   1.956
 1108SOL    HW1 3365   3.493   1.452   1.947
 1108SOL    HW2 3366   3.466   1.307   1.923
 1109SOL     OW 3367   2.318   1.797   2.154
 1109SOL    HW1 3368   2.366   1.841   2.227
 1109SOL    HW2 3369   2.391   1.752   2.108
 1110SOL     OW 3370   3.292   0.156   2.318
 1110SOL    HW1 3371   3.339   0.101   2.253
 1110SOL    HW2 3372   3.327   0.123   2.403
 1111SOL     OW 3373   2.845   1.704   2.750
 1111SOL    HW1 3374   2.929   1.659   2.729
 1111SOL    HW2 3375   2.784   1.658   2.689
 1112SOL     OW 3376   2.256   0.659   2.329
 1112SOL    HW1 3377   2.259   0.563   2.350
 1112SOL    HW2 3378   2.165   0.681   2.357
 1113SOL     OW 3379   2.482   0.085   1.913
 1113SOL    HW1 3380   2.528   0.024   1.975
 1113SOL    HW2 3381   2.474   0.031   1.833
 1114SOL     OW 3382   2.678   1.301   2.781
 1114SOL    HW1 3383   2.768   1.336   2.771
 1114SOL    HW2 3384   2.627   1.348   2.714
 1115SOL     OW 3385   2.781   0.511   2.755
 1115SOL    HW1 3386   2.761   0.498   2.660
 1115SOL    HW2 3387   2.820   0.424   2.777
 1116SOL     OW 3388   2.390   0.103   2.349
 1116SOL    HW1 3389   2.365   0.012   2.324
 1116SOL    HW2 3390   2.378   0.150   2.265
 1117SOL     OW 3391   3.314   1.214   1.886
 1117SOL    HW1 3392   3.339   1.139   1.942
 1117SOL    HW2 3393   3.235   1.248   1.933
 1118SOL     OW 3394   2.114   0.098   2.043
 1118SOL    HW1 3395   2.191   0.141   2.085
 1118SOL    HW2 3396   2.124   0.007   2.075
 1119SOL     OW 3397   2.826   0.261   2.307
 1119SOL    HW1 3398   2.804   0.284   2.215
 1119SOL    HW2 3399   2.922   0.280   2.310
 1120SOL     OW 3400   3.066   1.587   2.640
 1120SOL    HW1 3401   3.085   1.657   2.575
 1120SOL    HW2 3402   3.155   1.561   2.669
 1121SOL     OW 3403   2.378   1.169   2.549
 1121SOL    HW1 3404   2.312   1.150   2.620
 1121SOL    HW2 3405   2.320   1.167   2.470
 1122SOL     OW 3406   3.108   1.802   2.472
 1122SOL    HW1 3407   3.154   1.875   2.426
 1122SOL    HW2 3408   3.032   1.850   2.510
 1123SOL     OW 3409   2.896   0.489   1.875
 1123SOL    HW1 3410   2.853   0.572   1.847
 1123SOL    HW2 3411   2.953   0.518   1.948
 1124SOL     OW 3412   4.102   2.700   0.177
 1124SOL    HW1 3413   4.195   2.726   0.164
 1124SOL    HW2 3414   4.097   2.685   0.273
 1125SOL     OW 3415   2.745   0.459   2.490
 1125SOL    HW1 3416   2.698   0.503   2.418
 1125SOL    HW2 3417   2.775   0.377   2.446
 1126SOL     OW 3418   2.752   0.077   2.649
 1126SOL    HW1 3419   2.732   0.054   2.557
 1126SOL    HW2 3420   2.672   0.049   2.696
 1127SOL     OW 3421   3.255   1.208   2.678
 1127SOL    HW1 3422   3.165   1.173   2.691
 1127SOL    HW2 3423   3.269   1.190   2.583
 1128SOL     OW 3424   3.675   0.787   2.246
 1128SOL    HW1 3425   3.743   0.743   2.301
 1128SOL    HW2 3426   3.679   0.733   2.165
 1129SOL     OW 3427   2.391   1.468   2.069
 1129SOL    HW1 3428   2.307   1.420   2.078
 1129SOL    HW2 3429   2.443   1.411   2.010
 1130SOL     OW 3430   3.578   1.355   2.411
 1130SOL    HW1 3431   3.666   1.349   2.453
 1130SOL    HW2 3432   3.538   1.431   2.456
 1131SOL     OW 3433   3.239   0.537   1.913
 1131SOL    HW1 3434   3.173   0.533   1.986
 1131SOL    HW2 3435   3.293   0.459   1.934
 1132SOL     OW 3436   2.349   0.215   2.110
 1132SOL    HW1 3437   2.403   0.174   2.039
 1132SOL    HW2 3438   2.343   0.308   2.080
 1133SOL     OW 3439   3.501   1.161   2.804
 1133SOL    HW1 3440   3.482   1.183   2.897
 1133SOL    HW2 3441   3.413   1.173   2.763
 1134SOL     OW 3442   2.595   1.052   2.249
 1134SOL    HW1 3443   2.577   1.019   2.339
 1134SOL    HW2 3444   2.678   1.003   2.228
 1135SOL     OW 3445   0.184   2.997   0.097
 1135SOL    HW1 3446   0.237   2.945   0.160
 1135SOL    HW2 3447   0.100   2.949   0.098
 1136SOL     OW 3448   4.081   3.692   0.129
 1136SOL    HW1 3449   4.079   3.755   0.201
 1136SOL    HW2 3450   4.176   3.670   0.123
 1137SOL     OW 3451   2.199   1.164   2.340
 1137SOL    HW1 3452   2.195   1.230   2.269
 1137SOL    HW2 3453   2.187   1.081   2.290
 1138SOL     OW 3454   2.371   0.522   2.733
 1138SOL    HW1 3455   2.393   0.583   2.659
 1138SOL    HW2 3456   2.443   0.542   2.796
 1139SOL     OW 3457   3.123   1.369   2.303
 1139SOL    HW1 3458   3.177   1.447   2.324
 1139SOL    HW2 3459   3.033   1.401   2.325
 1140SOL     OW 3460   3.124   1.421   2.959
 1140SOL    HW1 3461   3.121   1.348   3.023
 1140SOL    HW2 3462   3.054   1.397   2.896
 1141SOL     OW 3463   3.432   0.654   2.290
 1141SOL    HW1 3464   3.361   0.707   2.248
 1141SOL    HW2 3465   3.510   0.710   2.274
 1142SOL     OW 3466   4.347   3.630   0.111
 1142SOL    HW1 3467   4.350   3.610   0.015
 1142SOL    HW2 3468   4.442   3.649   0.128
 1143SOL     OW 3469   2.465   0.863   2.917
 1143SOL    HW1 3470   2.506   0.951   2.922
 1143SOL    HW2 3471   2.423   0.856   3.005
 1144SOL     OW 3472   3.122   0.761   2.943
 1144SOL    HW1 3473   3.094   0.834   3.004
 1144SOL    HW2 3474   3.183   0.807   2.884
 1145SOL     OW 3475   3.050   0.523   2.106
 1145SOL    HW1 3476   3.068   0.451   2.170
 1145SOL    HW2 3477   3.004   0.587   2.164
 1146SOL     OW 3478   3.984   3.468   0.027
 1146SOL    HW1 3479   4.051   3.411   0.071
 1146SOL    HW2 3480   4.009   3.555   0.066
 1147SOL     OW 3481   2.561   0.591   2.911
 1147SOL    HW1 3482   2.643   0.574   2.862
 1147SOL    HW2 3483   2.551   0.688   2.906
 1148SOL     OW 3484   2.195   0.037   2.533
 1148SOL    HW1 3485   2.269   0.067   2.477
 1148SOL    HW2 3486   2.241  -0.026   2.592
 1149SOL     OW 3487   3.508   0.415   2.159
 1149SOL    HW1 3488   3.555   0.352   2.218
 1149SOL    HW2 3489   3.470   0.479   2.222
 1150SOL     OW 3490   2.891   0.754   2.783
 1150SOL    HW1 3491   2.963   0.745   2.847
 1150SOL    HW2 3492   2.851   0.665   2.783
 1151SOL     OW 3493   3.374   0.304   1.954
 1151SOL    HW1 3494   3.339   0.221   1.988
 1151SOL    HW2 3495   3.429   0.335   2.029
 1152SOL     OW 3496   3.164   0.803   1.903
 1152SOL    HW1 3497   3.197   0.712   1.891
 1152SOL    HW2 3498   3.192   0.846   1.820
 1153SOL     OW 3499   2.946   1.366   2.757
 1153SOL    HW1 3500   2.964   1.282   2.711
 1153SOL    HW2 3501   2.981   1.433   2.696
 1154SOL     OW 3502   2.205   0.847   2.798
 1154SOL    HW1 3503   2.300   0.850   2.820
 1154SOL    HW2 3504   2.180   0.759   2.831
 1155SOL     OW 3505   2.153   0.578   2.880
 1155SOL    HW1 3506   2.118   0.487   2.888
 1155SOL    HW2 3507   2.230   0.562   2.822
 1156SOL     OW 3508   1.887   1.295   2.019
 1156SOL    HW1 3509   1.794   1.317   1.995
 1156SOL    HW2 3510   1.877   1.207   2.059
 1157SOL     OW 3511   6.269   1.808   2.814
 1157SOL    HW1 3512   6.232   1.741   2.752
 1157SOL    HW2 3513   6.363   1.811   2.785
 1158SOL     OW 3514   2.351   1.584   2.734
 1158SOL    HW1 3515   2.423   1.649   2.742
 1158SOL    HW2 3516   2.394   1.516   2.679
 1159SOL     OW 3517   6.215   0.620   2.978
 1159SOL    HW1 3518   6.301   0.624   2.934
 1159SOL    HW2 3519   6.239   0.596   3.070
 1160SOL     OW 3520   2.678   0.544   2.227
 1160SOL    HW1 3521   2.688   0.468   2.167
 1160SOL    HW2 3522   2.596   0.586   2.195
 1161SOL     OW 3523   2.314   0.456   1.992
 1161SOL    HW1 3524   2.378   0.520   2.029
 1161SOL    HW2 3525   2.231   0.508   1.998
 1162SOL     OW 3526   3.240   0.815   2.167
 1162SOL    HW1 3527   3.157   0.813   2.217
 1162SOL    HW2 3528   3.207   0.807   2.075
 1163SOL     OW 3529   3.558   1.673   2.957
 1163SOL    HW1 3530   3.637   1.724   2.930
 1163SOL    HW2 3531   3.584   1.585   2.928
 1164SOL     OW 3532   6.320   1.239   2.864
 1164SOL    HW1 3533   6.281   1.258   2.951
 1164SOL    HW2 3534   6.253   1.180   2.825
 1165SOL     OW 3535   3.672   0.239   2.294
 1165SOL    HW1 3536   3.709   0.217   2.206
 1165SOL    HW2 3537   3.691   0.157   2.343
 1166SOL     OW 3538   3.264   1.599   2.361
 1166SOL    HW1 3539   3.307   1.634   2.281
 1166SOL    HW2 3540   3.202   1.671   2.385
 1167SOL     OW 3541   3.149   0.932   2.523
 1167SOL    HW1 3542   3.231   0.888   2.556
 1167SOL    HW2 3543   3.187   1.005   2.470
 1168SOL     OW 3544   2.552   1.689   2.035
 1168SOL    HW1 3545   2.563   1.686   1.938
 1168SOL    HW2 3546   2.503   1.606   2.050
 1169SOL     OW 3547   3.638   0.231   2.862
 1169SOL    HW1 3548   3.674   0.159   2.807
 1169SOL    HW2 3549   3.562   0.260   2.808
 1170SOL     OW 3550   2.081   0.377   2.616
 1170SOL    HW1 3551   2.005   0.436   2.598
 1170SOL    HW2 3552   2.083   0.375   2.713
 1171SOL     OW 3553   3.095   1.548   1.935
 1171SOL    HW1 3554   3.099   1.455   1.965
 1171SOL    HW2 3555   3.009   1.549   1.889
 1172SOL     OW 3556   2.818   0.919   2.190
 1172SOL    HW1 3557   2.848   0.913   2.098
 1172SOL    HW2 3558   2.853   0.837   2.228
 1173SOL     OW 3559   3.373   1.589   1.918
 1173SOL    HW1 3560   3.276   1.581   1.909
 1173SOL    HW2 3561   3.401   1.602   1.825
 1174SOL     OW 3562   2.990   1.114   2.658
 1174SOL    HW1 3563   2.902   1.076   2.675
 1174SOL    HW2 3564   3.032   1.043   2.606
 1175SOL     OW 3565   2.893   0.261   2.798
 1175SOL    HW1 3566   2.848   0.196   2.740
 1175SOL    HW2 3567   2.874   0.225   2.887
 1176SOL     OW 3568   2.501   1.475   2.322
 1176SOL    HW1 3569   2.569   1.422   2.277
 1176SOL    HW2 3570   2.440   1.491   2.249
 1177SOL     OW 3571   2.142   1.345   2.122
 1177SOL    HW1 3572   2.049   1.323   2.100
 1177SOL    HW2 3573   2.128   1.401   2.202
 1178SOL     OW 3574   1.834   0.366   1.817
 1178SOL    HW1 3575   1.830   0.394   1.909
 1178SOL    HW2 3576   1.908   0.421   1.783
 1179SOL     OW 3577   1.858   0.090   2.163
 1179SOL    HW1 3578   1.931   0.113   2.103
 1179SOL    HW2 3579   1.905   0.035   2.229
 1180SOL     OW 3580   3.099   1.294   2.041
 1180SOL    HW1 3581   3.016   1.244   2.045
 1180SOL    HW2 3582   3.113   1.317   2.134
 1181SOL     OW 3583   3.352   1.844   2.888
 1181SOL    HW1 3584   3.401   1.900   2.826
 1181SOL    HW2 3585   3.418   1.776   2.912
 1182SOL     OW 3586   3.094   0.340   2.308
 1182SOL    HW1 3587   3.164   0.271   2.306
 1182SOL    HW2 3588   3.116   0.385   2.392
 1183SOL     OW 3589   2.429   0.712   2.545
 1183SOL    HW1 3590   2.476   0.796   2.531
 1183SOL    HW2 3591   2.374   0.705   2.466
 1184SOL     OW 3592   1.505   3.129   0.391
 1184SOL    HW1 3593   1.583   3.180   0.368
 1184SOL    HW2 3594   1.475   3.098   0.304
 1185SOL     OW 3595   2.635   1.380   1.945
 1185SOL    HW1 3596   2.666   1.365   2.037
 1185SOL    HW2 3597   2.705   1.436   1.908
 1186SOL     OW 3598   2.536   1.780   2.736
 1186SOL    HW1 3599   2.495   1.867   2.724
 1186SOL    HW2 3600   2.616   1.802   2.785
 1187SOL     OW 3601   2.752   0.980   2.715
 1187SOL    HW1 3602   2.796   0.896   2.740
 1187SOL    HW2 3603   2.704   1.004   2.795
 1188SOL     OW 3604   2.910   0.896   1.939
 1188SOL    HW1 3605   2.899   0.976   1.883
 1188SOL    HW2 3606   3.003   0.871   1.923
 1189SOL     OW 3607   3.712   1.556   2.678
 1189SOL    HW1 3608   3.626   1.561   2.634
 1189SOL    HW2 3609   3.749   1.473   2.645
 1190SOL     OW 3610   2.035   1.272   2.536
 1190SOL    HW1 3611   2.070   1.227   2.613
 1190SOL    HW2 3612   2.086   1.231   2.464
 1191SOL     OW 3613   2.256   0.400   2.404
 1191SOL    HW1 3614   2.305   0.317   2.402
 1191SOL    HW2 3615   2.198   0.389   2.482
 1192SOL     OW 3616   4.351   2.768   0.087
 1192SOL    HW1 3617   4.430   2.713   0.102
 1192SOL    HW2 3618   4.343   2.766  -0.010
 1193SOL     OW 3619   2.710   1.592   2.541
 1193SOL    HW1 3620   2.668   1.666   2.495
 1193SOL    HW2 3621   2.634   1.533   2.557
 1194SOL     OW 3622   2.740   4.257   2.961
 1194SOL    HW1 3623   2.659   4.285   2.916
 1194SOL    HW2 3624   2.785   4.342   2.975
 1195SOL     OW 3625   2.687   1.313   2.203
 1195SOL    HW1 3626   2.662   1.222   2.225
 1195SOL    HW2 3627   2.761   1.332   2.262
 1196SOL     OW 3628   3.189   0.047   1.956
 1196SOL    HW1 3629   3.260   0.019   2.017
 1196SOL    HW2 3630   3.113   0.052   2.014
 1197SOL     OW 3631   3.160   0.469   2.545
 1197SOL    HW1 3632   3.100   0.547   2.548
 1197SOL    HW2 3633   3.145   0.429   2.633
 1198SOL     OW 3634   3.423   0.307   2.706
 1198SOL    HW1 3635   3.332   0.315   2.740
 1198SOL    HW2 3636   3.431   0.386   2.650
 1199SOL     OW 3637   1.905   1.057   2.159
 1199SOL    HW1 3638   2.001   1.041   2.153
 1199SOL    HW2 3639   1.874   0.965   2.174
 1200SOL     OW 3640   2.789   1.693   2.199
 1200SOL    HW1 3641   2.712   1.689   2.140
 1200SOL    HW2 3642   2.760   1.759   2.265
 1201SOL     OW 3643   1.974   2.497   0.111
 1201SOL    HW1 3644   1.886   2.507   0.154
 1201SOL    HW2 3645   1.953   2.436   0.037
 1202SOL     OW 3646   2.081   2.162   0.992
 1202SOL    HW1 3647   2.111   2.123   1.077
 1202SOL    HW2 3648   1.994   2.118   0.982
 1203SOL     OW 3649   1.831   2.270   0.662
 1203SOL    HW1 3650   1.743   2.287   0.699
 1203SOL    HW2 3651   1.810   2.204   0.592
 1204SOL     OW 3652   2.422   3.181   1.231
 1204SOL    HW1 3653   2.341   3.191   1.178
 1204SOL    HW2 3654   2.451   3.273   1.242
 1205SOL     OW 3655   3.487   3.371   0.768
 1205SOL    HW1 3656   3.439   3.348   0.851
 1205SOL    HW2 3657   3.416   3.412   0.716
 1206SOL     OW 3658   3.007   2.557   0.703
 1206SOL    HW1 3659   3.048   2.644   0.686
 1206SOL    HW2 3660   2.968   2.571   0.790
 1207SOL     OW 3661   3.661   2.416   0.304
 1207SOL    HW1 3662   3.656   2.476   0.228
 1207SOL    HW2 3663   3.599   2.457   0.367
 1208SOL     OW 3664   2.580   2.993   1.107
 1208SOL    HW1 3665   2.519   3.045   1.163
 1208SOL    HW2 3666   2.618   3.066   1.055
 1209SOL     OW 3667   2.770   2.564   1.793
 1209SOL    HW1 3668   2.809   2.618   1.864
 1209SOL    HW2 3669   2.765   2.630   1.721
 1210SOL     OW 3670   2.559   2.826   0.650
 1210SOL    HW1 3671   2.628   2.831   0.718
 1210SOL    HW2 3672   2.499   2.898   0.677
 1211SOL     OW 3673   2.535   3.022   1.913
 1211SOL    HW1 3674   2.549   3.078   1.991
 1211SOL    HW2 3675   2.472   3.073   1.860
 1212SOL     OW 3676   2.199   3.246   1.089
 1212SOL    HW1 3677   2.132   3.185   1.051
 1212SOL    HW2 3678   2.230   3.296   1.011
 1213SOL     OW 3679   2.339   2.220   1.417
 1213SOL    HW1 3680   2.416   2.165   1.441
 1213SOL    HW2 3681   2.265   2.171   1.459
 1214SOL     OW 3682   3.438   2.288   0.728
 1214SOL    HW1 3683   3.356   2.287   0.676
 1214SOL    HW2 3684   3.418   2.356   0.794
 1215SOL     OW 3685   2.023   3.621   0.485
 1215SOL    HW1 3686   2.089   3.673   0.535
 1215SOL    HW2 3687   2.025   3.536   0.533
 1216SOL     OW 3688   2.003   3.379   0.611
 1216SOL    HW1 3689   1.943   3.397   0.686
 1216SOL    HW2 3690   2.025   3.285   0.629
 1217SOL     OW 3691   2.163   2.951   0.846
 1217SOL    HW1 3692   2.178   2.860   0.879
 1217SOL    HW2 3693   2.110   2.990   0.919
 1218SOL     OW 3694   2.387   3.673   1.421
 1218SOL    HW1 3695   2.315   3.651   1.483
 1218SOL    HW2 3696   2.428   3.751   1.462
 1219SOL     OW 3697   3.420   1.993   1.400
 1219SOL    HW1 3698   3.495   2.024   1.346
 1219SOL    HW2 3699   3.385   2.074   1.438
 1220SOL     OW 3700   1.950   2.516   0.599
 1220SOL    HW1 3701   1.914   2.429   0.624
 1220SOL    HW2 3702   1.961   2.560   0.686
 1221SOL     OW 3703   3.777   3.686   0.399
 1221SOL    HW1 3704   3.857   3.634   0.423
 1221SOL    HW2 3705   3.811   3.739   0.325
 1222SOL     OW 3706   1.917   3.400   0.071
 1222SOL    HW1 3707   1.925   3.305   0.091
 1222SOL    HW2 3708   1.887   3.436   0.156
 1223SOL     OW 3709   3.541   2.757   0.593
 1223SOL    HW1 3710   3.625   2.771   0.641
 1223SOL    HW2 3711   3.529   2.842   0.546
 1224SOL     OW 3712   3.476   2.998   0.458
 1224SOL    HW1 3713   3.513   3.027   0.372
 1224SOL    HW2 3714   3.528   3.051   0.522
 1225SOL     OW 3715   1.957   2.641   1.515
 1225SOL    HW1 3716   2.007   2.701   1.456
 1225SOL    HW2 3717   1.872   2.688   1.520
 1226SOL     OW 3718   2.487   3.264   0.750
 1226SOL    HW1 3719   2.454   3.176   0.725
 1226SOL    HW2 3720   2.494   3.309   0.663
 1227SOL     OW 3721   2.679   1.902   0.586
 1227SOL    HW1 3722   2.716   1.979   0.538
 1227SOL    HW2 3723   2.584   1.910   0.565
 1228SOL     OW 3724   2.074   2.811   1.331
 1228SOL    HW1 3725   2.163   2.773   1.315
 1228SOL    HW2 3726   2.038   2.817   1.242
 1229SOL     OW 3727   2.227   2.126   1.862
 1229SOL    HW1 3728   2.258   2.205   1.910
 1229SOL    HW2 3729   2.153   2.164   1.810
 1230SOL     OW 3730   3.357   3.288   0.997
 1230SOL    HW1 3731   3.300   3.309   1.074
 1230SOL    HW2 3732   3.313   3.209   0.961
 1231SOL     OW 3733   3.529   3.591   0.458
 1231SOL    HW1 3734   3.621   3.618   0.438
 1231SOL    HW2 3735   3.541   3.498   0.479
 1232SOL     OW 3736   3.132   2.251   0.925
 1232SOL    HW1 3737   3.042   2.216   0.938
 1232SOL    HW2 3738   3.182   2.197   0.989
 1233SOL     OW 3739   2.657   2.453   1.414
 1233SOL    HW1 3740   2.628   2.421   1.502
 1233SOL    HW2 3741   2.630   2.380   1.356
 1234SOL     OW 3742   3.230   2.354   1.660
 1234SOL    HW1 3743   3.232   2.393   1.750
 1234SOL    HW2 3744   3.292   2.279   1.670
 1235SOL     OW 3745   2.787   2.771   1.602
 1235SOL    HW1 3746   2.845   2.713   1.549
 1235SOL    HW2 3747   2.743   2.822   1.531
 1236SOL     OW 3748   2.862   2.246   1.211
 1236SOL    HW1 3749   2.766   2.253   1.227
 1236SOL    HW2 3750   2.865   2.212   1.120
 1237SOL     OW 3751   2.870   2.509   0.474
 1237SOL    HW1 3752   2.930   2.526   0.549
 1237SOL    HW2 3753   2.787   2.494   0.522
 1238SOL     OW 3754   1.969   2.675   0.818
 1238SOL    HW1 3755   2.057   2.678   0.858
 1238SOL    HW2 3756   1.920   2.738   0.873
 1239SOL     OW 3757   1.943   3.739   1.563
 1239SOL    HW1 3758   1.934   3.724   1.660
 1239SOL    HW2 3759   1.858   3.705   1.531
 1240SOL     OW 3760   2.736   2.149   0.102
 1240SOL    HW1 3761   2.791   2.198   0.166
 1240SOL    HW2 3762   2.799   2.084   0.067
 1241SOL     OW 3763   3.251   3.025   0.610
 1241SOL    HW1 3764   3.330   3.020   0.552
 1241SOL    HW2 3765   3.209   3.108   0.580
 1242SOL     OW 3766   2.424   1.963   0.922
 1242SOL    HW1 3767   2.422   1.995   1.015
 1242SOL    HW2 3768   2.431   2.045   0.873
 1243SOL     OW 3769   2.878   3.344   0.470
 1243SOL    HW1 3770   2.807   3.280   0.451
 1243SOL    HW2 3771   2.829   3.413   0.519
 1244SOL     OW 3772   2.190   3.651   0.909
 1244SOL    HW1 3773   2.233   3.564   0.897
 1244SOL    HW2 3774   2.266   3.710   0.923
 1245SOL     OW 3775   3.628   2.966   0.892
 1245SOL    HW1 3776   3.596   3.019   0.816
 1245SOL    HW2 3777   3.544   2.933   0.930
 1246SOL     OW 3778   3.329   2.620   0.697
 1246SOL    HW1 3779   3.341   2.571   0.781
 1246SOL    HW2 3780   3.413   2.668   0.686
 1247SOL     OW 3781   2.343   3.178   1.770
 1247SOL    HW1 3782   2.321   3.184   1.675
 1247SOL    HW2 3783   2.254   3.154   1.805
 1248SOL     OW 3784   2.107   2.096   1.505
 1248SOL    HW1 3785   2.080   2.157   1.576
 1248SOL    HW2 3786   2.051   2.019   1.526
 1249SOL     OW 3787   2.122   3.655   1.190
 1249SOL    HW1 3788   2.157   3.577   1.235
 1249SOL    HW2 3789   2.146   3.640   1.098
 1250SOL     OW 3790   2.756   3.545   0.852
 1250SOL    HW1 3791   2.844   3.506   0.861
 1250SOL    HW2 3792   2.737   3.527   0.758
 1251SOL     OW 3793   2.229   2.579   0.471
 1251SOL    HW1 3794   2.220   2.483   0.488
 1251SOL    HW2 3795   2.139   2.609   0.490
 1252SOL     OW 3796   3.365   2.120   1.713
 1252SOL    HW1 3797   3.363   2.135   1.810
 1252SOL    HW2 3798   3.318   2.037   1.705
 1253SOL     OW 3799   2.625   2.131   1.735
 1253SOL    HW1 3800   2.708   2.078   1.740
 1253SOL    HW2 3801   2.577   2.095   1.811
 1254SOL     OW 3802   2.728   3.444   1.164
 1254SOL    HW1 3803   2.696   3.394   1.087
 1254SOL    HW2 3804   2.751   3.373   1.226
 1255SOL     OW 3805   3.146   2.454   1.424
 1255SOL    HW1 3806   3.185   2.430   1.510
 1255SOL    HW2 3807   3.217   2.506   1.382
 1256SOL     OW 3808   2.651   3.231   0.975
 1256SOL    HW1 3809   2.741   3.233   0.937
 1256SOL    HW2 3810   2.596   3.249   0.896
 1257SOL     OW 3811   2.773   2.375   0.898
 1257SOL    HW1 3812   2.744   2.362   0.805
 1257SOL    HW2 3813   2.806   2.286   0.920
 1258SOL     OW 3814   2.420   1.931   0.517
 1258SOL    HW1 3815   2.332   1.926   0.560
 1258SOL    HW2 3816   2.418   2.021   0.477
 1259SOL     OW 3817   2.803   2.125   0.488
 1259SOL    HW1 3818   2.805   2.178   0.407
 1259SOL    HW2 3819   2.899   2.112   0.503
 1260SOL     OW 3820   2.910   2.587   1.443
 1260SOL    HW1 3821   2.845   2.516   1.445
 1260SOL    HW2 3822   2.995   2.539   1.437
 1261SOL     OW 3823   3.022   3.477   0.840
 1261SOL    HW1 3824   3.058   3.540   0.775
 1261SOL    HW2 3825   3.060   3.510   0.924
 1262SOL     OW 3826   2.371   3.023   0.689
 1262SOL    HW1 3827   2.301   2.999   0.753
 1262SOL    HW2 3828   2.322   3.025   0.606
 1263SOL     OW 3829   3.101   3.679   0.663
 1263SOL    HW1 3830   3.130   3.735   0.588
 1263SOL    HW2 3831   3.025   3.729   0.697
 1264SOL     OW 3832   1.964   2.404   1.377
 1264SOL    HW1 3833   2.060   2.405   1.360
 1264SOL    HW2 3834   1.953   2.482   1.435
 1265SOL     OW 3835   2.411   2.045   1.177
 1265SOL    HW1 3836   2.428   1.973   1.240
 1265SOL    HW2 3837   2.317   2.064   1.198
 1266SOL     OW 3838   2.695   2.329   0.644
 1266SOL    HW1 3839   2.616   2.356   0.594
 1266SOL    HW2 3840   2.725   2.251   0.595
 1267SOL     OW 3841   2.882   1.936   0.765
 1267SOL    HW1 3842   2.809   1.927   0.701
 1267SOL    HW2 3843   2.871   1.855   0.818
 1268SOL     OW 3844   3.236   3.066   0.881
 1268SOL    HW1 3845   3.141   3.043   0.884
 1268SOL    HW2 3846   3.253   3.059   0.786
 1269SOL     OW 3847   3.318   2.456   0.920
 1269SOL    HW1 3848   3.250   2.387   0.932
 1269SOL    HW2 3849   3.380   2.436   0.993
 1270SOL     OW 3850   3.748   2.714   0.351
 1270SOL    HW1 3851   3.773   2.655   0.425
 1270SOL    HW2 3852   3.792   2.671   0.275
 1271SOL     OW 3853   3.579   3.132   0.676
 1271SOL    HW1 3854   3.675   3.147   0.668
 1271SOL    HW2 3855   3.545   3.219   0.703
 1272SOL     OW 3856   2.420   2.172   0.398
 1272SOL    HW1 3857   2.434   2.142   0.306
 1272SOL    HW2 3858   2.481   2.249   0.400
 1273SOL     OW 3859   2.780   3.235   1.328
 1273SOL    HW1 3860   2.697   3.205   1.369
 1273SOL    HW2 3861   2.844   3.180   1.377
 1274SOL     OW 3862   2.991   3.208   1.152
 1274SOL    HW1 3863   2.909   3.212   1.204
 1274SOL    HW2 3864   2.958   3.212   1.061
 1275SOL     OW 3865   3.393   2.871   0.992
 1275SOL    HW1 3866   3.326   2.804   1.013
 1275SOL    HW2 3867   3.337   2.945   0.960
 1276SOL     OW 3868   2.781   1.928   1.375
 1276SOL    HW1 3869   2.807   1.916   1.282
 1276SOL    HW2 3870   2.865   1.960   1.414
 1277SOL     OW 3871   2.799   2.949   1.818
 1277SOL    HW1 3872   2.708   2.973   1.841
 1277SOL    HW2 3873   2.788   2.898   1.736
 1278SOL     OW 3874   2.496   2.935   0.396
 1278SOL    HW1 3875   2.525   2.888   0.476
 1278SOL    HW2 3876   2.526   2.876   0.325
 1279SOL     OW 3877   2.306   2.683   1.284
 1279SOL    HW1 3878   2.371   2.684   1.357
 1279SOL    HW2 3879   2.274   2.590   1.288
 1280SOL     OW 3880   3.109   2.210   1.309
 1280SOL    HW1 3881   3.127   2.297   1.349
 1280SOL    HW2 3882   3.018   2.224   1.275
 1281SOL     OW 3883   1.932   3.405   1.352
 1281SOL    HW1 3884   1.896   3.481   1.303
 1281SOL    HW2 3885   2.028   3.419   1.344
 1282SOL     OW 3886   2.231   3.032   0.449
 1282SOL    HW1 3887   2.213   3.117   0.404
 1282SOL    HW2 3888   2.314   3.003   0.407
 1283SOL     OW 3889   2.363   2.406   0.836
 1283SOL    HW1 3890   2.395   2.457   0.759
 1283SOL    HW2 3891   2.433   2.421   0.901
 1284SOL     OW 3892   3.139   3.259   0.546
 1284SOL    HW1 3893   3.185   3.342   0.563
 1284SOL    HW2 3894   3.049   3.289   0.521
 1285SOL     OW 3895   3.206   3.349   1.219
 1285SOL    HW1 3896   3.204   3.362   1.316
 1285SOL    HW2 3897   3.128   3.291   1.205
 1286SOL     OW 3898   3.461   2.527   0.465
 1286SOL    HW1 3899   3.391   2.527   0.532
 1286SOL    HW2 3900   3.505   2.611   0.489
 1287SOL     OW 3901   2.198   3.405   1.303
 1287SOL    HW1 3902   2.194   3.344   1.226
 1287SOL    HW2 3903   2.294   3.426   1.305
 1288SOL     OW 3904   2.349   2.562   1.670
 1288SOL    HW1 3905   2.393   2.611   1.598
 1288SOL    HW2 3906   2.413   2.491   1.685
 1289SOL     OW 3907   2.842   1.976   1.756
 1289SOL    HW1 3908   2.914   2.040   1.744
 1289SOL    HW2 3909   2.883   1.893   1.724
 1290SOL     OW 3910   2.360   1.905   1.768
 1290SOL    HW1 3911   2.306   1.865   1.697
 1290SOL    HW2 3912   2.309   1.986   1.788
 1291SOL     OW 3913   2.462   2.739   1.066
 1291SOL    HW1 3914   2.502   2.827   1.079
 1291SOL    HW2 3915   2.410   2.727   1.149
 1292SOL     OW 3916   3.198   2.677   1.035
 1292SOL    HW1 3917   3.104   2.673   1.013
 1292SOL    HW2 3918   3.234   2.600   0.988
 1293SOL     OW 3919   2.140   2.047   1.232
 1293SOL    HW1 3920   2.123   2.074   1.324
 1293SOL    HW2 3921   2.110   1.954   1.234
 1294SOL     OW 3922   1.914   3.142   1.280
 1294SOL    HW1 3923   1.954   3.100   1.358
 1294SOL    HW2 3924   1.919   3.237   1.302
 1295SOL     OW 3925   2.544   2.467   1.030
 1295SOL    HW1 3926   2.631   2.456   0.988
 1295SOL    HW2 3927   2.535   2.564   1.038
 1296SOL     OW 3928   2.173   1.916   0.627
 1296SOL    HW1 3929   2.135   2.002   0.651
 1296SOL    HW2 3930   2.180   1.871   0.714
 1297SOL     OW 3931   2.893   2.609   0.955
 1297SOL    HW1 3932   2.863   2.621   1.048
 1297SOL    HW2 3933   2.855   2.521   0.936
 1298SOL     OW 3934   3.745   3.498   1.594
 1298SOL    HW1 3935   3.763   3.463   1.505
 1298SOL    HW2 3936   3.813   3.453   1.647
 1299SOL     OW 3937   2.234   2.764   1.819
 1299SOL    HW1 3938   2.294   2.775   1.895
 1299SOL    HW2 3939   2.278   2.694   1.769
 1300SOL     OW 3940   2.906   3.232   0.892
 1300SOL    HW1 3941   2.941   3.154   0.845
 1300SOL    HW2 3942   2.959   3.306   0.855
 1301SOL     OW 3943   2.207   2.695   0.954
 1301SOL    HW1 3944   2.300   2.709   0.980
 1301SOL    HW2 3945   2.192   2.604   0.985
 1302SOL     OW 3946   2.160   2.418   1.010
 1302SOL    HW1 3947   2.125   2.327   1.003
 1302SOL    HW2 3948   2.230   2.414   0.942
 1303SOL     OW 3949   3.010   2.188   1.691
 1303SOL    HW1 3950   2.957   2.235   1.759
 1303SOL    HW2 3951   3.082   2.251   1.675
 1304SOL     OW 3952   3.019   2.015   1.480
 1304SOL    HW1 3953   3.013   2.076   1.556
 1304SOL    HW2 3954   3.062   2.071   1.413
 1305SOL     OW 3955   1.920   3.150   0.206
 1305SOL    HW1 3956   1.824   3.168   0.195
 1305SOL    HW2 3957   1.919   3.069   0.262
 1306SOL     OW 3958   1.914   3.640   0.939
 1306SOL    HW1 3959   1.887   3.564   0.885
 1306SOL    HW2 3960   2.010   3.645   0.921
 1307SOL     OW 3961   2.322   3.410   0.909
 1307SOL    HW1 3962   2.395   3.464   0.946
 1307SOL    HW2 3963   2.372   3.355   0.845
 1308SOL     OW 3964   2.785   2.623   1.200
 1308SOL    HW1 3965   2.843   2.637   1.277
 1308SOL    HW2 3966   2.717   2.566   1.239
 1309SOL     OW 3967   1.891   2.464   1.119
 1309SOL    HW1 3968   1.976   2.460   1.072
 1309SOL    HW2 3969   1.917   2.439   1.210
 1310SOL     OW 3970   2.081   2.505   1.724
 1310SOL    HW1 3971   2.174   2.523   1.703
 1310SOL    HW2 3972   2.034   2.560   1.658
 1311SOL     OW 3973   2.594   2.374   0.362
 1311SOL    HW1 3974   2.680   2.357   0.321
 1311SOL    HW2 3975   2.567   2.458   0.324
 1312SOL     OW 3976   3.491   2.413   1.116
 1312SOL    HW1 3977   3.456   2.460   1.193
 1312SOL    HW2 3978   3.582   2.447   1.110
 1313SOL     OW 3979   2.056   3.391   1.724
 1313SOL    HW1 3980   2.012   3.419   1.807
 1313SOL    HW2 3981   2.082   3.300   1.748
 1314SOL     OW 3982   2.589   2.270   1.219
 1314SOL    HW1 3983   2.526   2.195   1.214
 1314SOL    HW2 3984   2.556   2.331   1.151
 1315SOL     OW 3985   2.690   3.591   1.508
 1315SOL    HW1 3986   2.714   3.521   1.446
 1315SOL    HW2 3987   2.710   3.671   1.457
 1316SOL     OW 3988   2.024   3.017   1.500
 1316SOL    HW1 3989   2.025   2.974   1.588
 1316SOL    HW2 3990   2.048   2.941   1.442
 1317SOL     OW 3991   3.722   3.630   1.195
 1317SOL    HW1 3992   3.779   3.629   1.116
 1317SOL    HW2 3993   3.657   3.561   1.173
 1318SOL     OW 3994   3.116   3.568   1.081
 1318SOL    HW1 3995   3.204   3.610   1.074
 1318SOL    HW2 3996   3.138   3.490   1.135
 1319SOL     OW 3997   1.998   3.058   1.033
 1319SOL    HW1 3998   1.961   3.085   1.119
 1319SOL    HW2 3999   1.926   3.002   0.997
 1320SOL     OW 4000   2.562   3.568   1.740
 1320SOL    HW1 4001   2.489   3.632   1.736
 1320SOL    HW2 4002   2.605   3.583   1.652
 1321SOL     OW 4003   3.293   3.491   0.606
 1321SOL    HW1 4004   3.349   3.543   0.546
 1321SOL    HW2 4005   3.225   3.556   0.632
 1322SOL     OW 4006   1.945   3.684   1.823
 1322SOL    HW1 4007   1.918   3.598   1.860
 1322SOL    HW2 4008   2.010   3.714   1.889
 1323SOL     OW 4009   3.128   2.796   0.676
 1323SOL    HW1 4010   3.205   2.736   0.680
 1323SOL    HW2 4011   3.170   2.878   0.642
 1324SOL     OW 4012   2.573   3.135   1.471
 1324SOL    HW1 4013   2.575   3.191   1.551
 1324SOL    HW2 4014   2.486   3.153   1.434
 1325SOL     OW 4015   3.717   2.055   0.985
 1325SOL    HW1 4016   3.744   1.965   0.959
 1325SOL    HW2 4017   3.628   2.063   0.947
 1326SOL     OW 4018   2.084   2.165   0.709
 1326SOL    HW1 4019   1.995   2.203   0.698
 1326SOL    HW2 4020   2.096   2.173   0.805
 1327SOL     OW 4021   2.649   2.888   1.395
 1327SOL    HW1 4022   2.663   2.905   1.301
 1327SOL    HW2 4023   2.624   2.976   1.428
 1328SOL     OW 4024   2.247   3.199   1.518
 1328SOL    HW1 4025   2.225   3.271   1.457
 1328SOL    HW2 4026   2.172   3.139   1.507
 1329SOL     OW 4027   2.978   2.977   0.819
 1329SOL    HW1 4028   2.891   2.936   0.833
 1329SOL    HW2 4029   3.022   2.909   0.764
 1330SOL     OW 4030   2.887   2.120   0.965
 1330SOL    HW1 4031   2.887   2.069   0.881
 1330SOL    HW2 4032   2.885   2.045   1.028
 1331SOL     OW 4033   2.502   3.386   0.502
 1331SOL    HW1 4034   2.544   3.317   0.447
 1331SOL    HW2 4035   2.459   3.443   0.435
 1332SOL     OW 4036   3.703   2.238   1.424
 1332SOL    HW1 4037   3.739   2.319   1.383
 1332SOL    HW2 4038   3.679   2.182   1.348
 1333SOL     OW 4039   2.119   3.268   0.353
 1333SOL    HW1 4040   2.041   3.235   0.304
 1333SOL    HW2 4041   2.079   3.321   0.424
 1334SOL     OW 4042   2.009   2.897   1.740
 1334SOL    HW1 4043   1.932   2.865   1.791
 1334SOL    HW2 4044   2.081   2.839   1.773
 1335SOL     OW 4045   2.550   2.048   1.483
 1335SOL    HW1 4046   2.635   2.017   1.445
 1335SOL    HW2 4047   2.577   2.078   1.572
 1336SOL     OW 4048   4.081   0.148   2.978
 1336SOL    HW1 4049   4.029   0.071   2.948
 1336SOL    HW2 4050   4.172   0.114   2.967
 1337SOL     OW 4051   3.324   2.596   1.276
 1337SOL    HW1 4052   3.271   2.633   1.204
 1337SOL    HW2 4053   3.406   2.649   1.268
 1338SOL     OW 4054   1.918   2.008   0.251
 1338SOL    HW1 4055   1.865   2.056   0.186
 1338SOL    HW2 4056   2.009   2.035   0.228
 1339SOL     OW 4057   2.499   2.672   1.468
 1339SOL    HW1 4058   2.553   2.752   1.451
 1339SOL    HW2 4059   2.563   2.601   1.451
 1340SOL     OW 4060   3.373   3.650   1.077
 1340SOL    HW1 4061   3.417   3.704   1.009
 1340SOL    HW2 4062   3.440   3.583   1.097
 1341SOL     OW 4063   2.582   2.396   1.671
 1341SOL    HW1 4064   2.645   2.446   1.727
 1341SOL    HW2 4065   2.597   2.304   1.699
 1342SOL     OW 4066   3.386   3.135   1.665
 1342SOL    HW1 4067   3.378   3.096   1.754
 1342SOL    HW2 4068   3.439   3.070   1.619
 1343SOL     OW 4069   2.184   3.607   1.601
 1343SOL    HW1 4070   2.101   3.652   1.577
 1343SOL    HW2 4071   2.149   3.524   1.640
 1344SOL     OW 4072   3.548   2.712   1.177
 1344SOL    HW1 4073   3.626   2.665   1.142
 1344SOL    HW2 4074   3.526   2.775   1.108
 1345SOL     OW 4075   3.078   2.141   0.482
 1345SOL    HW1 4076   3.101   2.176   0.394
 1345SOL    HW2 4077   3.115   2.209   0.542
 1346SOL     OW 4078   2.456   2.567   0.632
 1346SOL    HW1 4079   2.494   2.656   0.639
 1346SOL    HW2 4080   2.379   2.582   0.574
 1347SOL     OW 4081   3.633   2.119   1.659
 1347SOL    HW1 4082   3.647   2.169   1.576
 1347SOL    HW2 4083   3.536   2.120   1.668
 1348SOL     OW 4084   2.516   3.578   0.980
 1348SOL    HW1 4085   2.495   3.672   0.966
 1348SOL    HW2 4086   2.606   3.570   0.943
 1349SOL     OW 4087   2.742   2.836   0.872
 1349SOL    HW1 4088   2.790   2.756   0.900
 1349SOL    HW2 4089   2.696   2.862   0.952
 1350SOL     OW 4090   2.924   2.859   0.134
 1350SOL    HW1 4091   2.912   2.813   0.050
 1350SOL    HW2 4092   2.967   2.792   0.189
 1351SOL     OW 4093   3.762   3.417   0.828
 1351SOL    HW1 4094   3.667   3.412   0.811
 1351SOL    HW2 4095   3.792   3.328   0.805
 1352SOL     OW 4096   2.082   3.139   1.827
 1352SOL    HW1 4097   2.057   3.052   1.792
 1352SOL    HW2 4098   2.026   3.144   1.907
 1353SOL     OW 4099   2.035   3.111   0.651
 1353SOL    HW1 4100   2.067   3.054   0.724
 1353SOL    HW2 4101   2.082   3.073   0.575
 1354SOL     OW 4102   2.577   3.297   1.693
 1354SOL    HW1 4103   2.497   3.257   1.731
 1354SOL    HW2 4104   2.562   3.392   1.706
 1355SOL     OW 4105   3.645   2.037   1.246
 1355SOL    HW1 4106   3.656   1.941   1.242
 1355SOL    HW2 4107   3.672   2.062   1.155
 1356SOL     OW 4108   2.204   2.311   0.498
 1356SOL    HW1 4109   2.278   2.253   0.474
 1356SOL    HW2 4110   2.165   2.264   0.574
 1357SOL     OW 4111   3.556   3.424   1.129
 1357SOL    HW1 4112   3.489   3.374   1.078
 1357SOL    HW2 4113   3.600   3.352   1.177
 1358SOL     OW 4114   2.223   2.427   1.291
 1358SOL    HW1 4115   2.273   2.354   1.333
 1358SOL    HW2 4116   2.221   2.401   1.197
 1359SOL     OW 4117   2.714   3.532   0.586
 1359SOL    HW1 4118   2.697   3.627   0.570
 1359SOL    HW2 4119   2.630   3.491   0.559
 1360SOL     OW 4120   3.264   2.108   1.108
 1360SOL    HW1 4121   3.288   2.018   1.133
 1360SOL    HW2 4122   3.218   2.141   1.188
 1361SOL     OW 4123   2.884   1.883   1.109
 1361SOL    HW1 4124   2.842   1.814   1.056
 1361SOL    HW2 4125   2.976   1.849   1.114
 1362SOL     OW 4126   2.638   3.180   0.384
 1362SOL    HW1 4127   2.583   3.101   0.399
 1362SOL    HW2 4128   2.684   3.154   0.302
 1363SOL     OW 4129   2.463   3.455   1.277
 1363SOL    HW1 4130   2.450   3.537   1.328
 1363SOL    HW2 4131   2.538   3.479   1.220
 1364SOL     OW 4132   3.163   2.325   0.663
 1364SOL    HW1 4133   3.118   2.412   0.667
 1364SOL    HW2 4134   3.148   2.293   0.754
 1365SOL     OW 4135   3.459   2.073   0.909
 1365SOL    HW1 4136   3.395   2.107   0.974
 1365SOL    HW2 4137   3.452   2.137   0.837
 1366SOL     OW 4138   1.972   2.934   0.366
 1366SOL    HW1 4139   2.066   2.943   0.387
 1366SOL    HW2 4140   1.964   2.837   0.353
 1367SOL     OW 4141   2.083   2.525   2.008
 1367SOL    HW1 4142   1.995   2.492   2.035
 1367SOL    HW2 4143   2.074   2.530   1.911
 1368SOL     OW 4144   2.068   2.222   2.816
 1368SOL    HW1 4145   2.113   2.213   2.903
 1368SOL    HW2 4146   1.984   2.174   2.833
 1369SOL     OW 4147   1.833   2.294   2.505
 1369SOL    HW1 4148   1.748   2.307   2.552
 1369SOL    HW2 4149   1.808   2.223   2.443
 1370SOL     OW 4150   2.431   3.193   3.059
 1370SOL    HW1 4151   2.346   3.221   3.021
 1370SOL    HW2 4152   2.492   3.202   2.983
 1371SOL     OW 4153   3.472   3.355   2.566
 1371SOL    HW1 4154   3.410   3.342   2.640
 1371SOL    HW2 4155   3.409   3.370   2.493
 1372SOL     OW 4156   3.004   2.560   2.549
 1372SOL    HW1 4157   3.045   2.648   2.535
 1372SOL    HW2 4158   2.956   2.575   2.633
 1373SOL     OW 4159   3.665   2.410   2.066
 1373SOL    HW1 4160   3.688   2.343   1.999
 1373SOL    HW2 4161   3.588   2.367   2.108
 1374SOL     OW 4162   2.642   2.922   2.911
 1374SOL    HW1 4163   2.608   2.878   2.990
 1374SOL    HW2 4164   2.607   3.012   2.917
 1375SOL     OW 4165   2.534   2.787   2.514
 1375SOL    HW1 4166   2.610   2.796   2.575
 1375SOL    HW2 4167   2.477   2.862   2.540
 1376SOL     OW 4168   2.193   3.301   2.956
 1376SOL    HW1 4169   2.126   3.239   2.923
 1376SOL    HW2 4170   2.219   3.348   2.875
 1377SOL     OW 4171   3.429   2.287   2.598
 1377SOL    HW1 4172   3.353   2.287   2.537
 1377SOL    HW2 4173   3.405   2.360   2.657
 1378SOL     OW 4174   2.097   3.602   2.302
 1378SOL    HW1 4175   2.127   3.669   2.367
 1378SOL    HW2 4176   2.171   3.604   2.239
 1379SOL     OW 4177   2.169   3.340   2.357
 1379SOL    HW1 4178   2.128   3.429   2.358
 1379SOL    HW2 4179   2.117   3.292   2.424
 1380SOL     OW 4180   2.156   2.988   2.712
 1380SOL    HW1 4181   2.169   2.897   2.746
 1380SOL    HW2 4182   2.104   3.029   2.784
 1381SOL     OW 4183   2.405   2.812   2.041
 1381SOL    HW1 4184   2.452   2.873   1.981
 1381SOL    HW2 4185   2.449   2.835   2.126
 1382SOL     OW 4186   1.431   4.142   0.299
 1382SOL    HW1 4187   1.402   4.226   0.259
 1382SOL    HW2 4188   1.346   4.109   0.335
 1383SOL     OW 4189   1.971   2.539   2.447
 1383SOL    HW1 4190   1.932   2.454   2.475
 1383SOL    HW2 4191   1.969   2.590   2.531
 1384SOL     OW 4192   3.696   3.600   2.144
 1384SOL    HW1 4193   3.754   3.596   2.223
 1384SOL    HW2 4194   3.719   3.689   2.110
 1385SOL     OW 4195   1.903   3.442   1.943
 1385SOL    HW1 4196   1.836   3.371   1.948
 1385SOL    HW2 4197   1.893   3.485   2.030
 1386SOL     OW 4198   3.568   2.822   2.594
 1386SOL    HW1 4199   3.651   2.771   2.600
 1386SOL    HW2 4200   3.576   2.866   2.508
 1387SOL     OW 4201   3.516   2.951   2.289
 1387SOL    HW1 4202   3.595   2.929   2.237
 1387SOL    HW2 4203   3.550   3.023   2.347
 1388SOL     OW 4204   2.456   3.246   2.599
 1388SOL    HW1 4205   2.426   3.153   2.586
 1388SOL    HW2 4206   2.445   3.280   2.508
 1389SOL     OW 4207   2.698   1.879   2.385
 1389SOL    HW1 4208   2.734   1.966   2.356
 1389SOL    HW2 4209   2.602   1.896   2.383
 1390SOL     OW 4210   4.221   0.754   0.114
 1390SOL    HW1 4211   4.281   0.700   0.060
 1390SOL    HW2 4212   4.139   0.702   0.116
 1391SOL     OW 4213   3.340   2.841   2.105
 1391SOL    HW1 4214   3.271   2.799   2.159
 1391SOL    HW2 4215   3.405   2.869   2.173
 1392SOL     OW 4216   3.275   3.301   2.758
 1392SOL    HW1 4217   3.279   3.292   2.854
 1392SOL    HW2 4218   3.267   3.208   2.729
 1393SOL     OW 4219   3.502   3.667   2.382
 1393SOL    HW1 4220   3.488   3.607   2.307
 1393SOL    HW2 4221   3.537   3.608   2.450
 1394SOL     OW 4222   2.435   2.542   2.150
 1394SOL    HW1 4223   2.432   2.629   2.109
 1394SOL    HW2 4224   2.369   2.551   2.222
 1395SOL     OW 4225   3.152   2.254   2.812
 1395SOL    HW1 4226   3.063   2.215   2.802
 1395SOL    HW2 4227   3.188   2.194   2.880
 1396SOL     OW 4228   3.430   3.524   2.150
 1396SOL    HW1 4229   3.524   3.542   2.131
 1396SOL    HW2 4230   3.406   3.466   2.074
 1397SOL     OW 4231   2.907   2.542   2.294
 1397SOL    HW1 4232   2.929   2.535   2.389
 1397SOL    HW2 4233   2.821   2.497   2.289
 1398SOL     OW 4234   1.958   2.712   2.660
 1398SOL    HW1 4235   2.043   2.712   2.708
 1398SOL    HW2 4236   1.908   2.777   2.711
 1399SOL     OW 4237   2.706   2.202   2.069
 1399SOL    HW1 4238   2.761   2.234   1.995
 1399SOL    HW2 4239   2.652   2.133   2.026
 1400SOL     OW 4240   3.264   3.005   2.406
 1400SOL    HW1 4241   3.347   2.990   2.358
 1400SOL    HW2 4242   3.219   3.071   2.351
 1401SOL     OW 4243   2.398   2.016   2.741
 1401SOL    HW1 4244   2.423   2.024   2.835
 1401SOL    HW2 4245   2.400   2.110   2.712
 1402SOL     OW 4246   2.887   3.321   2.296
 1402SOL    HW1 4247   2.857   3.395   2.240
 1402SOL    HW2 4248   2.828   3.330   2.372
 1403SOL     OW 4249   2.195   3.695   2.732
 1403SOL    HW1 4250   2.232   3.605   2.736
 1403SOL    HW2 4251   2.270   3.749   2.764
 1404SOL     OW 4252   3.503   3.004   2.795
 1404SOL    HW1 4253   3.537   2.939   2.731
 1404SOL    HW2 4254   3.415   3.021   2.757
 1405SOL     OW 4255   2.141   2.781   2.130
 1405SOL    HW1 4256   2.230   2.794   2.094
 1405SOL    HW2 4257   2.120   2.692   2.099
 1406SOL     OW 4258   3.355   2.649   2.573
 1406SOL    HW1 4259   3.354   2.590   2.650
 1406SOL    HW2 4260   3.429   2.709   2.592
 1407SOL     OW 4261   3.023   3.568   2.031
 1407SOL    HW1 4262   2.941   3.559   2.082
 1407SOL    HW2 4263   2.999   3.527   1.947
 1408SOL     OW 4264   3.573   3.202   1.974
 1408SOL    HW1 4265   3.515   3.279   1.961
 1408SOL    HW2 4266   3.511   3.130   1.954
 1409SOL     OW 4267   2.321   3.637   2.147
 1409SOL    HW1 4268   2.374   3.687   2.211
 1409SOL    HW2 4269   2.389   3.584   2.102
 1410SOL     OW 4270   3.247   1.996   2.342
 1410SOL    HW1 4271   3.254   1.978   2.246
 1410SOL    HW2 4272   3.335   1.968   2.373
 1411SOL     OW 4273   2.758   3.532   2.684
 1411SOL    HW1 4274   2.836   3.484   2.718
 1411SOL    HW2 4275   2.732   3.475   2.609
 1412SOL     OW 4276   2.242   2.539   2.346
 1412SOL    HW1 4277   2.236   2.441   2.342
 1412SOL    HW2 4278   2.152   2.562   2.374
 1413SOL     OW 4279   2.533   1.991   1.965
 1413SOL    HW1 4280   2.576   1.910   1.995
 1413SOL    HW2 4281   2.468   1.956   1.900
 1414SOL     OW 4282   1.171   0.246   0.171
 1414SOL    HW1 4283   1.183   0.273   0.264
 1414SOL    HW2 4284   1.131   0.326   0.132
 1415SOL     OW 4285   2.595   3.201   2.840
 1415SOL    HW1 4286   2.689   3.205   2.814
 1415SOL    HW2 4287   2.550   3.218   2.755
 1416SOL     OW 4288   2.799   2.358   2.764
 1416SOL    HW1 4289   2.772   2.348   2.669
 1416SOL    HW2 4290   2.838   2.270   2.780
 1417SOL     OW 4291   2.434   1.939   2.357
 1417SOL    HW1 4292   2.357   1.941   2.416
 1417SOL    HW2 4293   2.419   2.018   2.301
 1418SOL     OW 4294   3.362   3.037   1.919
 1418SOL    HW1 4295   3.359   2.958   1.977
 1418SOL    HW2 4296   3.284   3.086   1.949
 1419SOL     OW 4297   2.118   1.929   2.017
 1419SOL    HW1 4298   2.165   2.000   1.971
 1419SOL    HW2 4299   2.191   1.885   2.066
 1420SOL     OW 4300   2.804   2.117   2.311
 1420SOL    HW1 4301   2.772   2.149   2.225
 1420SOL    HW2 4302   2.898   2.142   2.310
 1421SOL     OW 4303   3.033   3.410   2.675
 1421SOL    HW1 4304   3.062   3.476   2.610
 1421SOL    HW2 4305   3.119   3.374   2.705
 1422SOL     OW 4306   2.359   3.002   2.537
 1422SOL    HW1 4307   2.288   2.993   2.604
 1422SOL    HW2 4308   2.309   2.990   2.454
 1423SOL     OW 4309   3.118   3.618   2.507
 1423SOL    HW1 4310   3.169   3.691   2.466
 1423SOL    HW2 4311   3.032   3.662   2.521
 1424SOL     OW 4312   2.875   2.325   1.885
 1424SOL    HW1 4313   2.841   2.412   1.854
 1424SOL    HW2 4314   2.930   2.351   1.961
 1425SOL     OW 4315   4.022   0.219   0.228
 1425SOL    HW1 4316   4.081   0.156   0.273
 1425SOL    HW2 4317   4.054   0.305   0.263
 1426SOL     OW 4318   2.468   2.003   2.999
 1426SOL    HW1 4319   2.470   1.938   3.070
 1426SOL    HW2 4320   2.459   2.087   3.048
 1427SOL     OW 4321   2.739   2.314   2.503
 1427SOL    HW1 4322   2.686   2.367   2.442
 1427SOL    HW2 4323   2.759   2.236   2.449
 1428SOL     OW 4324   2.886   1.919   2.588
 1428SOL    HW1 4325   2.818   1.912   2.519
 1428SOL    HW2 4326   2.864   1.845   2.647
 1429SOL     OW 4327   3.260   3.046   2.678
 1429SOL    HW1 4328   3.178   3.000   2.702
 1429SOL    HW2 4329   3.263   3.030   2.581
 1430SOL     OW 4330   3.325   2.465   2.784
 1430SOL    HW1 4331   3.258   2.396   2.799
 1430SOL    HW2 4332   3.386   2.449   2.859
 1431SOL     OW 4333   3.661   2.628   2.228
 1431SOL    HW1 4334   3.722   2.589   2.293
 1431SOL    HW2 4335   3.658   2.557   2.160
 1432SOL     OW 4336   2.375   3.326   2.000
 1432SOL    HW1 4337   2.306   3.281   2.053
 1432SOL    HW2 4338   2.363   3.282   1.914
 1433SOL     OW 4339   3.618   3.128   2.457
 1433SOL    HW1 4340   3.713   3.127   2.479
 1433SOL    HW2 4341   3.585   3.208   2.501
 1434SOL     OW 4342   3.225   2.409   1.928
 1434SOL    HW1 4343   3.153   2.403   1.994
 1434SOL    HW2 4344   3.275   2.328   1.948
 1435SOL     OW 4345   2.378   2.122   2.163
 1435SOL    HW1 4346   2.433   2.081   2.094
 1435SOL    HW2 4347   2.346   2.202   2.117
 1436SOL     OW 4348   3.038   3.071   2.933
 1436SOL    HW1 4349   3.003   2.981   2.925
 1436SOL    HW2 4350   2.973   3.123   2.885
 1437SOL     OW 4351   2.552   2.878   2.257
 1437SOL    HW1 4352   2.541   2.843   2.347
 1437SOL    HW2 4353   2.638   2.837   2.232
 1438SOL     OW 4354   2.192   2.986   2.318
 1438SOL    HW1 4355   2.200   3.048   2.244
 1438SOL    HW2 4356   2.172   2.903   2.271
 1439SOL     OW 4357   2.421   2.297   2.696
 1439SOL    HW1 4358   2.447   2.362   2.628
 1439SOL    HW2 4359   2.473   2.328   2.773
 1440SOL     OW 4360   3.137   3.214   2.276
 1440SOL    HW1 4361   3.186   3.285   2.320
 1440SOL    HW2 4362   3.044   3.243   2.289
 1441SOL     OW 4363   3.433   2.502   2.345
 1441SOL    HW1 4364   3.390   2.553   2.416
 1441SOL    HW2 4365   3.496   2.566   2.309
 1442SOL     OW 4366   3.161   2.682   2.857
 1442SOL    HW1 4367   3.069   2.665   2.829
 1442SOL    HW2 4368   3.210   2.612   2.812
 1443SOL     OW 4369   3.025   2.377   2.109
 1443SOL    HW1 4370   3.045   2.306   2.173
 1443SOL    HW2 4371   2.986   2.444   2.168
 1444SOL     OW 4372   4.058   1.017   0.085
 1444SOL    HW1 4373   4.091   0.961   0.157
 1444SOL    HW2 4374   4.116   1.094   0.092
 1445SOL     OW 4375   2.563   2.397   2.905
 1445SOL    HW1 4376   2.651   2.399   2.864
 1445SOL    HW2 4377   2.565   2.473   2.966
 1446SOL     OW 4378   2.189   1.934   2.486
 1446SOL    HW1 4379   2.145   2.020   2.504
 1446SOL    HW2 4380   2.187   1.893   2.574
 1447SOL     OW 4381   3.458   2.281   2.193
 1447SOL    HW1 4382   3.503   2.220   2.254
 1447SOL    HW2 4383   3.435   2.356   2.251
 1448SOL     OW 4384   2.897   2.606   2.798
 1448SOL    HW1 4385   2.884   2.627   2.893
 1448SOL    HW2 4386   2.860   2.515   2.794
 1449SOL     OW 4387   3.341   2.163   1.979
 1449SOL    HW1 4388   3.310   2.078   2.016
 1449SOL    HW2 4389   3.388   2.202   2.056
 1450SOL     OW 4390   3.170   2.681   1.936
 1450SOL    HW1 4391   3.203   2.591   1.920
 1450SOL    HW2 4392   3.251   2.729   1.960
 1451SOL     OW 4393   2.860   3.206   2.746
 1451SOL    HW1 4394   2.891   3.127   2.696
 1451SOL    HW2 4395   2.921   3.275   2.714
 1452SOL     OW 4396   2.191   2.734   2.810
 1452SOL    HW1 4397   2.227   2.740   2.900
 1452SOL    HW2 4398   2.213   2.643   2.785
 1453SOL     OW 4399   2.204   2.459   2.769
 1453SOL    HW1 4400   2.143   2.383   2.767
 1453SOL    HW2 4401   2.285   2.417   2.733
 1454SOL     OW 4402   1.918   3.135   2.045
 1454SOL    HW1 4403   1.829   3.170   2.024
 1454SOL    HW2 4404   1.897   3.049   2.086
 1455SOL     OW 4405   6.265   3.643   2.808
 1455SOL    HW1 4406   6.237   3.571   2.748
 1455SOL    HW2 4407   6.358   3.655   2.782
 1456SOL     OW 4408   2.316   3.440   2.749
 1456SOL    HW1 4409   2.395   3.493   2.771
 1456SOL    HW2 4410   2.355   3.370   2.693
 1457SOL     OW 4411   2.861   2.660   3.055
 1457SOL    HW1 4412   2.902   2.660   3.142
 1457SOL    HW2 4413   2.766   2.659   3.077
 1458SOL     OW 4414   6.195   2.459   3.029
 1458SOL    HW1 4415   6.289   2.477   3.016
 1458SOL    HW2 4416   6.194   2.428   3.122
 1459SOL     OW 4417   2.669   2.419   2.244
 1459SOL    HW1 4418   2.671   2.345   2.182
 1459SOL    HW2 4419   2.588   2.466   2.217
 1460SOL     OW 4420   3.480   2.401   2.997
 1460SOL    HW1 4421   3.422   2.402   3.075
 1460SOL    HW2 4422   3.565   2.430   3.034
 1461SOL     OW 4423   2.294   2.343   2.021
 1461SOL    HW1 4424   2.360   2.405   2.057
 1461SOL    HW2 4425   2.214   2.399   2.023
 1462SOL     OW 4426   4.173   0.908   0.328
 1462SOL    HW1 4427   4.145   0.845   0.398
 1462SOL    HW2 4428   4.205   0.846   0.259
 1463SOL     OW 4429   3.129   2.707   2.214
 1463SOL    HW1 4430   3.059   2.657   2.257
 1463SOL    HW2 4431   3.115   2.686   2.120
 1464SOL     OW 4432   3.517   3.588   2.895
 1464SOL    HW1 4433   3.606   3.600   2.855
 1464SOL    HW2 4434   3.534   3.517   2.960
 1465SOL     OW 4435   6.319   3.101   2.893
 1465SOL    HW1 4436   6.284   3.111   2.983
 1465SOL    HW2 4437   6.251   3.046   2.850
 1466SOL     OW 4438   3.606   2.094   2.328
 1466SOL    HW1 4439   3.652   2.071   2.244
 1466SOL    HW2 4440   3.569   2.008   2.356
 1467SOL     OW 4441   3.280   3.426   2.378
 1467SOL    HW1 4442   3.315   3.467   2.297
 1467SOL    HW2 4443   3.221   3.494   2.415
 1468SOL     OW 4444   3.132   2.797   2.526
 1468SOL    HW1 4445   3.212   2.744   2.543
 1468SOL    HW2 4446   3.167   2.862   2.461
 1469SOL     OW 4447   2.546   3.533   2.010
 1469SOL    HW1 4448   2.560   3.540   1.914
 1469SOL    HW2 4449   2.493   3.451   2.016
 1470SOL     OW 4450   3.724   2.041   2.832
 1470SOL    HW1 4451   3.733   1.945   2.832
 1470SOL    HW2 4452   3.630   2.054   2.811
 1471SOL     OW 4453   2.075   2.170   2.550
 1471SOL    HW1 4454   1.990   2.215   2.532
 1471SOL    HW2 4455   2.086   2.187   2.645
 1472SOL     OW 4456   2.779   2.763   2.188
 1472SOL    HW1 4457   2.822   2.759   2.100
 1472SOL    HW2 4458   2.825   2.691   2.235
 1473SOL     OW 4459   3.357   3.372   1.935
 1473SOL    HW1 4460   3.281   3.315   1.958
 1473SOL    HW2 4461   3.353   3.373   1.838
 1474SOL     OW 4462   2.953   2.972   2.639
 1474SOL    HW1 4463   2.871   2.919   2.650
 1474SOL    HW2 4464   3.010   2.910   2.592
 1475SOL     OW 4465   2.919   2.110   2.790
 1475SOL    HW1 4466   2.912   2.057   2.708
 1475SOL    HW2 4467   2.904   2.042   2.858
 1476SOL     OW 4468   2.451   3.325   2.337
 1476SOL    HW1 4469   2.477   3.268   2.262
 1476SOL    HW2 4470   2.355   3.335   2.324
 1477SOL     OW 4471   2.174   3.194   2.133
 1477SOL    HW1 4472   2.082   3.182   2.103
 1477SOL    HW2 4473   2.163   3.252   2.211
 1478SOL     OW 4474   2.021   2.242   1.722
 1478SOL    HW1 4475   1.923   2.240   1.725
 1478SOL    HW2 4476   2.040   2.338   1.726
 1479SOL     OW 4477   1.874   1.985   2.122
 1479SOL    HW1 4478   1.836   2.036   2.049
 1479SOL    HW2 4479   1.966   1.971   2.091
 1480SOL     OW 4480   3.158   3.195   2.007
 1480SOL    HW1 4481   3.066   3.178   1.982
 1480SOL    HW2 4482   3.152   3.198   2.105
 1481SOL     OW 4483   3.313   3.755   2.841
 1481SOL    HW1 4484   3.248   3.698   2.798
 1481SOL    HW2 4485   3.389   3.694   2.850
 1482SOL     OW 4486   3.066   2.199   2.315
 1482SOL    HW1 4487   3.129   2.125   2.321
 1482SOL    HW2 4488   3.092   2.251   2.394
 1483SOL     OW 4489   2.451   2.519   2.530
 1483SOL    HW1 4490   2.488   2.609   2.528
 1483SOL    HW2 4491   2.377   2.527   2.468
 1484SOL     OW 4492   2.516   3.612   2.804
 1484SOL    HW1 4493   2.504   3.708   2.790
 1484SOL    HW2 4494   2.605   3.596   2.766
 1485SOL     OW 4495   2.741   2.810   2.692
 1485SOL    HW1 4496   2.787   2.733   2.728
 1485SOL    HW2 4497   2.702   2.850   2.773
 1486SOL     OW 4498   2.906   2.738   1.951
 1486SOL    HW1 4499   2.885   2.823   1.906
 1486SOL    HW2 4500   3.002   2.728   1.934
 1487SOL     OW 4501   3.719   3.400   2.677
 1487SOL    HW1 4502   3.632   3.389   2.633
 1487SOL    HW2 4503   3.718   3.327   2.742
 1488SOL     OW 4504   2.043   3.133   2.500
 1488SOL    HW1 4505   2.071   3.090   2.583
 1488SOL    HW2 4506   2.084   3.075   2.434
 1489SOL     OW 4507   2.225   2.276   2.345
 1489SOL    HW1 4508   2.272   2.204   2.301
 1489SOL    HW2 4509   2.179   2.231   2.418
 1490SOL     OW 4510   2.685   3.368   2.480
 1490SOL    HW1 4511   2.614   3.381   2.415
 1490SOL    HW2 4512   2.645   3.300   2.537
 1491SOL     OW 4513   3.240   2.067   2.989
 1491SOL    HW1 4514   3.276   1.983   2.953
 1491SOL    HW2 4515   3.191   2.033   3.065
 1492SOL     OW 4516   2.881   1.883   2.956
 1492SOL    HW1 4517   2.841   1.830   3.027
 1492SOL    HW2 4518   2.874   1.821   2.881
 1493SOL     OW 4519   2.585   3.134   2.171
 1493SOL    HW1 4520   2.568   3.045   2.207
 1493SOL    HW2 4521   2.678   3.147   2.191
 1494SOL     OW 4522   3.266   1.921   2.084
 1494SOL    HW1 4523   3.327   1.846   2.093
 1494SOL    HW2 4524   3.180   1.874   2.083
 1495SOL     OW 4525   3.149   2.328   2.539
 1495SOL    HW1 4526   3.099   2.412   2.539
 1495SOL    HW2 4527   3.143   2.300   2.632
 1496SOL     OW 4528   3.460   2.077   2.776
 1496SOL    HW1 4529   3.403   2.116   2.843
 1496SOL    HW2 4530   3.452   2.140   2.702
 1497SOL     OW 4531   1.893   2.891   2.176
 1497SOL    HW1 4532   1.984   2.865   2.153
 1497SOL    HW2 4533   1.855   2.803   2.196
 1498SOL     OW 4534   2.782   3.538   2.161
 1498SOL    HW1 4535   2.698   3.532   2.112
 1498SOL    HW2 4536   2.762   3.609   2.225
 1499SOL     OW 4537   1.915   4.313   0.136
 1499SOL    HW1 4538   1.886   4.231   0.091
 1499SOL    HW2 4539   2.003   4.287   0.170
 1500SOL     OW 4540   2.063   4.005   0.998
 1500SOL    HW1 4541   2.101   3.966   1.079
 1500SOL    HW2 4542   1.973   3.966   0.999
 1501SOL     OW 4543   1.799   4.034   0.682
 1501SOL    HW1 4544   1.730   4.023   0.749
 1501SOL    HW2 4545   1.769   3.973   0.613
 1502SOL     OW 4546   3.610   0.081   0.342
 1502SOL    HW1 4547   3.672   0.087   0.267
 1502SOL    HW2 4548   3.593  -0.015   0.346
 1503SOL     OW 4549   2.324   4.099   1.516
 1503SOL    HW1 4550   2.398   4.036   1.505
 1503SOL    HW2 4551   2.247   4.040   1.511
 1504SOL     OW 4552   3.457   4.094   0.770
 1504SOL    HW1 4553   3.383   4.119   0.712
 1504SOL    HW2 4554   3.446   4.159   0.842
 1505SOL     OW 4555   1.781   4.304   0.585
 1505SOL    HW1 4556   1.781   4.207   0.586
 1505SOL    HW2 4557   1.827   4.323   0.668
 1506SOL     OW 4558   2.668   3.803   0.571
 1506SOL    HW1 4559   2.713   3.877   0.525
 1506SOL    HW2 4560   2.574   3.827   0.556
 1507SOL     OW 4561   2.202   3.961   1.824
 1507SOL    HW1 4562   2.231   4.049   1.797
 1507SOL    HW2 4563   2.106   3.975   1.833
 1508SOL     OW 4564   3.147   4.104   0.933
 1508SOL    HW1 4565   3.058   4.065   0.938
 1508SOL    HW2 4566   3.197   4.039   0.987
 1509SOL     OW 4567   3.201   4.272   1.705
 1509SOL    HW1 4568   3.199   4.315   1.793
 1509SOL    HW2 4569   3.242   4.186   1.726
 1510SOL     OW 4570   2.905   4.150   1.160
 1510SOL    HW1 4571   2.808   4.151   1.173
 1510SOL    HW2 4572   2.913   4.074   1.100
 1511SOL     OW 4573   2.909   0.105   0.442
 1511SOL    HW1 4574   2.988   0.145   0.484
 1511SOL    HW2 4575   2.839   0.138   0.501
 1512SOL     OW 4576   1.919   0.056   0.806
 1512SOL    HW1 4577   2.014   0.046   0.806
 1512SOL    HW2 4578   1.907   0.144   0.764
 1513SOL     OW 4579   3.538   4.331   1.882
 1513SOL    HW1 4580   3.628   4.363   1.895
 1513SOL    HW2 4581   3.551   4.253   1.824
 1514SOL     OW 4582   2.401   3.828   0.938
 1514SOL    HW1 4583   2.414   3.880   1.020
 1514SOL    HW2 4584   2.422   3.893   0.870
 1515SOL     OW 4585   3.380   0.108   0.758
 1515SOL    HW1 4586   3.382   0.047   0.834
 1515SOL    HW2 4587   3.402   0.192   0.800
 1516SOL     OW 4588   2.084   3.963   1.498
 1516SOL    HW1 4589   2.034   4.028   1.548
 1516SOL    HW2 4590   2.034   3.881   1.517
 1517SOL     OW 4591   3.199   3.821   0.445
 1517SOL    HW1 4592   3.138   3.835   0.369
 1517SOL    HW2 4593   3.283   3.811   0.397
 1518SOL     OW 4594   3.299   4.022   1.754
 1518SOL    HW1 4595   3.299   4.003   1.851
 1518SOL    HW2 4596   3.245   3.950   1.720
 1519SOL     OW 4597   2.685   3.953   1.734
 1519SOL    HW1 4598   2.768   3.904   1.725
 1519SOL    HW2 4599   2.647   3.916   1.816
 1520SOL     OW 4600   3.201   4.324   1.438
 1520SOL    HW1 4601   3.208   4.297   1.531
 1520SOL    HW2 4602   3.124   4.383   1.441
 1521SOL     OW 4603   2.409   3.876   0.522
 1521SOL    HW1 4604   2.330   3.831   0.557
 1521SOL    HW2 4605   2.372   3.936   0.456
 1522SOL     OW 4606   2.806   4.006   0.455
 1522SOL    HW1 4607   2.807   4.093   0.413
 1522SOL    HW2 4608   2.894   4.006   0.498
 1523SOL     OW 4609   1.919   4.272   1.375
 1523SOL    HW1 4610   2.016   4.278   1.376
 1523SOL    HW2 4611   1.892   4.364   1.359
 1524SOL     OW 4612   2.427   3.964   1.176
 1524SOL    HW1 4613   2.470   3.923   1.252
 1524SOL    HW2 4614   2.332   3.955   1.199
 1525SOL     OW 4615   2.863   3.786   0.770
 1525SOL    HW1 4616   2.798   3.805   0.700
 1525SOL    HW2 4617   2.822   3.708   0.813
 1526SOL     OW 4618   3.373   4.268   0.965
 1526SOL    HW1 4619   3.286   4.225   0.980
 1526SOL    HW2 4620   3.413   4.265   1.054
 1527SOL     OW 4621   2.290   4.048   0.327
 1527SOL    HW1 4622   2.326   4.003   0.248
 1527SOL    HW2 4623   2.246   4.125   0.287
 1528SOL     OW 4624   2.745   3.809   1.356
 1528SOL    HW1 4625   2.781   3.775   1.273
 1528SOL    HW2 4626   2.821   3.864   1.387
 1529SOL     OW 4627   3.147   4.097   1.282
 1529SOL    HW1 4628   3.171   4.176   1.334
 1529SOL    HW2 4629   3.063   4.126   1.240
 1530SOL     OW 4630   2.346   4.291   0.884
 1530SOL    HW1 4631   2.346   4.331   0.795
 1530SOL    HW2 4632   2.439   4.300   0.910
 1531SOL     OW 4633   2.355   3.747   1.758
 1531SOL    HW1 4634   2.292   3.692   1.707
 1531SOL    HW2 4635   2.301   3.827   1.773
 1532SOL     OW 4636   2.165   3.916   1.238
 1532SOL    HW1 4637   2.128   3.935   1.326
 1532SOL    HW2 4638   2.148   3.820   1.230
 1533SOL     OW 4639   2.604   0.014   0.956
 1533SOL    HW1 4640   2.687   0.029   0.907
 1533SOL    HW2 4641   2.573   0.106   0.969
 1534SOL     OW 4642   2.177   3.779   0.649
 1534SOL    HW1 4643   2.139   3.866   0.670
 1534SOL    HW2 4644   2.180   3.737   0.736
 1535SOL     OW 4645   3.552   4.139   0.361
 1535SOL    HW1 4646   3.547   4.051   0.401
 1535SOL    HW2 4647   3.459   4.157   0.337
 1536SOL     OW 4648   3.412   3.989   0.095
 1536SOL    HW1 4649   3.415   3.917   0.159
 1536SOL    HW2 4650   3.501   4.028   0.101
 1537SOL     OW 4651   2.167   4.240   1.078
 1537SOL    HW1 4652   2.138   4.154   1.043
 1537SOL    HW2 4653   2.234   4.266   1.010
 1538SOL     OW 4654   2.965   4.159   1.609
 1538SOL    HW1 4655   2.886   4.197   1.652
 1538SOL    HW2 4656   3.039   4.205   1.651
 1539SOL     OW 4657   2.954   3.956   1.431
 1539SOL    HW1 4658   2.952   4.023   1.502
 1539SOL    HW2 4659   3.031   3.985   1.380
 1540SOL     OW 4660   1.850   4.235   1.109
 1540SOL    HW1 4661   1.926   4.223   1.051
 1540SOL    HW2 4662   1.891   4.229   1.197
 1541SOL     OW 4663   2.070   4.207   1.671
 1541SOL    HW1 4664   2.148   4.219   1.615
 1541SOL    HW2 4665   2.031   4.297   1.669
 1542SOL     OW 4666   2.597   4.328   0.226
 1542SOL    HW1 4667   2.686   4.295   0.249
 1542SOL    HW2 4668   2.565   4.362   0.312
 1543SOL     OW 4669   3.490   4.243   1.205
 1543SOL    HW1 4670   3.469   4.189   1.282
 1543SOL    HW2 4671   3.586   4.229   1.195
 1544SOL     OW 4672   2.635   4.157   1.154
 1544SOL    HW1 4673   2.558   4.098   1.153
 1544SOL    HW2 4674   2.615   4.221   1.083
 1545SOL     OW 4675   3.593   3.882   0.478
 1545SOL    HW1 4676   3.670   3.830   0.447
 1545SOL    HW2 4677   3.529   3.813   0.495
 1546SOL     OW 4678   3.720   3.847   0.972
 1546SOL    HW1 4679   3.753   3.760   0.946
 1546SOL    HW2 4680   3.628   3.847   0.940
 1547SOL     OW 4681   2.069   4.020   0.722
 1547SOL    HW1 4682   1.973   4.029   0.707
 1547SOL    HW2 4683   2.075   4.023   0.819
 1548SOL     OW 4684   2.929   3.930   0.996
 1548SOL    HW1 4685   2.908   3.892   0.908
 1548SOL    HW2 4686   2.908   3.854   1.054
 1549SOL     OW 4687   3.645   4.081   1.456
 1549SOL    HW1 4688   3.695   4.162   1.435
 1549SOL    HW2 4689   3.654   4.028   1.374
 1550SOL     OW 4690   2.532   3.912   1.498
 1550SOL    HW1 4691   2.606   3.882   1.441
 1550SOL    HW2 4692   2.578   3.930   1.581
 1551SOL     OW 4693   3.965   1.943   3.060
 1551SOL    HW1 4694   3.892   1.894   3.101
 1551SOL    HW2 4695   3.983   1.892   2.980
 1552SOL     OW 4696   1.872   3.833   0.383
 1552SOL    HW1 4697   1.892   3.826   0.289
 1552SOL    HW2 4698   1.933   3.768   0.422
 1553SOL     OW 4699   2.727   4.234   1.731
 1553SOL    HW1 4700   2.638   4.258   1.699
 1553SOL    HW2 4701   2.717   4.138   1.743
 1554SOL     OW 4702   3.054   4.031   0.553
 1554SOL    HW1 4703   3.117   3.964   0.521
 1554SOL    HW2 4704   3.113   4.098   0.592
 1555SOL     OW 4705   3.557   4.109   1.717
 1555SOL    HW1 4706   3.581   4.094   1.624
 1555SOL    HW2 4707   3.467   4.072   1.722
 1556SOL     OW 4708   3.697   3.916   1.235
 1556SOL    HW1 4709   3.706   3.825   1.265
 1556SOL    HW2 4710   3.694   3.901   1.139
 1557SOL     OW 4711   2.182   4.196   0.540
 1557SOL    HW1 4712   2.226   4.133   0.479
 1557SOL    HW2 4713   2.141   4.135   0.604
 1558SOL     OW 4714   2.189   4.285   1.342
 1558SOL    HW1 4715   2.251   4.221   1.380
 1558SOL    HW2 4716   2.190   4.262   1.247
 1559SOL     OW 4717   3.278   3.937   1.105
 1559SOL    HW1 4718   3.274   3.847   1.141
 1559SOL    HW2 4719   3.237   3.990   1.177
 1560SOL     OW 4720   2.869   3.687   1.136
 1560SOL    HW1 4721   2.814   3.607   1.136
 1560SOL    HW2 4722   2.958   3.649   1.121
 1561SOL     OW 4723   3.218   4.207   0.685
 1561SOL    HW1 4724   3.246   4.300   0.692
 1561SOL    HW2 4725   3.186   4.187   0.774
 1562SOL     OW 4726   3.458   3.862   0.914
 1562SOL    HW1 4727   3.395   3.896   0.981
 1562SOL    HW2 4728   3.456   3.934   0.849
 1563SOL     OW 4729   2.064   3.962   2.849
 1563SOL    HW1 4730   2.105   3.882   2.815
 1563SOL    HW2 4731   1.970   3.937   2.855
 1564SOL     OW 4732   1.884   4.092   2.496
 1564SOL    HW1 4733   1.806   4.111   2.551
 1564SOL    HW2 4734   1.845   4.029   2.432
 1565SOL     OW 4735   3.400   4.328   2.117
 1565SOL    HW1 4736   3.459   4.327   2.040
 1565SOL    HW2 4737   3.414   4.239   2.155
 1566SOL     OW 4738   3.395   4.133   2.509
 1566SOL    HW1 4739   3.299   4.128   2.528
 1566SOL    HW2 4740   3.409   4.229   2.524
 1567SOL     OW 4741   1.269   1.686   0.317
 1567SOL    HW1 4742   1.258   1.640   0.232
 1567SOL    HW2 4743   1.205   1.758   0.309
 1568SOL     OW 4744   1.996   4.288   2.344
 1568SOL    HW1 4745   1.956   4.217   2.397
 1568SOL    HW2 4746   2.077   4.308   2.394
 1569SOL     OW 4747   2.715   3.744   2.330
 1569SOL    HW1 4748   2.743   3.836   2.314
 1569SOL    HW2 4749   2.618   3.754   2.334
 1570SOL     OW 4750   3.167   4.028   2.849
 1570SOL    HW1 4751   3.082   3.988   2.819
 1570SOL    HW2 4752   3.219   3.948   2.868
 1571SOL     OW 4753   1.949   0.144   2.589
 1571SOL    HW1 4754   2.023   0.082   2.571
 1571SOL    HW2 4755   1.999   0.228   2.592
 1572SOL     OW 4756   2.807   4.084   2.055
 1572SOL    HW1 4757   2.882   4.040   2.014
 1572SOL    HW2 4758   2.806   4.044   2.145
 1573SOL     OW 4759   2.387   3.869   2.814
 1573SOL    HW1 4760   2.364   3.890   2.907
 1573SOL    HW2 4761   2.385   3.958   2.774
 1574SOL     OW 4762   3.382   0.068   2.573
 1574SOL    HW1 4763   3.349   0.024   2.654
 1574SOL    HW2 4764   3.408   0.154   2.610
 1575SOL     OW 4765   3.261   3.805   2.372
 1575SOL    HW1 4766   3.248   3.783   2.278
 1575SOL    HW2 4767   3.354   3.776   2.385
 1576SOL     OW 4768   2.539   3.828   1.946
 1576SOL    HW1 4769   2.560   3.743   1.989
 1576SOL    HW2 4770   2.472   3.801   1.880
 1577SOL     OW 4771   1.182   2.093   0.173
 1577SOL    HW1 4772   1.132   2.050   0.242
 1577SOL    HW2 4773   1.194   2.184   0.208
 1578SOL     OW 4774   2.450   3.800   2.320
 1578SOL    HW1 4775   2.374   3.803   2.381
 1578SOL    HW2 4776   2.446   3.887   2.275
 1579SOL     OW 4777   2.130   3.770   2.010
 1579SOL    HW1 4778   2.181   3.834   1.958
 1579SOL    HW2 4779   2.199   3.719   2.056
 1580SOL     OW 4780   2.799   4.001   2.313
 1580SOL    HW1 4781   2.769   4.074   2.369
 1580SOL    HW2 4782   2.894   3.993   2.339
 1581SOL     OW 4783   4.125   2.015   0.225
 1581SOL    HW1 4784   4.211   1.980   0.193
 1581SOL    HW2 4785   4.140   2.111   0.223
 1582SOL     OW 4786   0.153   1.703   0.027
 1582SOL    HW1 4787   0.224   1.636   0.029
 1582SOL    HW2 4788   0.082   1.655   0.074
 1583SOL     OW 4789   2.876   3.737   2.556
 1583SOL    HW1 4790   2.823   3.740   2.474
 1583SOL    HW2 4791   2.828   3.669   2.607
 1584SOL     OW 4792   3.307   4.263   2.793
 1584SOL    HW1 4793   3.263   4.182   2.823
 1584SOL    HW2 4794   3.374   4.277   2.864
 1585SOL     OW 4795   2.461   4.016   2.143
 1585SOL    HW1 4796   2.491   3.957   2.071
 1585SOL    HW2 4797   2.511   4.097   2.124
 1586SOL     OW 4798   2.518   0.035   2.851
 1586SOL    HW1 4799   2.466  -0.034   2.804
 1586SOL    HW2 4800   2.473   0.117   2.819
 1587SOL     OW 4801   2.216   3.784   2.467
 1587SOL    HW1 4802   2.193   3.879   2.472
 1587SOL    HW2 4803   2.204   3.755   2.560
 1588SOL     OW 4804   3.422   4.082   2.235
 1588SOL    HW1 4805   3.496   4.018   2.245
 1588SOL    HW2 4806   3.400   4.098   2.328
 1589SOL     OW 4807   3.293   3.967   2.015
 1589SOL    HW1 4808   3.268   3.880   2.051
 1589SOL    HW2 4809   3.333   4.011   2.093
 1590SOL     OW 4810   2.126   4.209   2.913
 1590SOL    HW1 4811   2.098   4.117   2.889
 1590SOL    HW2 4812   2.200   4.217   2.850
 1591SOL     OW 4813   2.850   0.159   3.051
 1591SOL    HW1 4814   2.928   0.147   3.107
 1591SOL    HW2 4815   2.782   0.178   3.119
 1592SOL     OW 4816   6.188   4.201   3.025
 1592SOL    HW1 4817   6.263   4.210   2.965
 1592SOL    HW2 4818   6.231   4.180   3.109
 1593SOL     OW 4819   2.605   4.255   2.102
 1593SOL    HW1 4820   2.684   4.203   2.076
 1593SOL    HW2 4821   2.631   4.290   2.188
 1594SOL     OW 4822   3.473   4.281   3.000
 1594SOL    HW1 4823   3.416   4.272   3.079
 1594SOL    HW2 4824   3.554   4.317   3.039
 1595SOL     OW 4825   3.615   3.903   2.296
 1595SOL    HW1 4826   3.679   3.883   2.224
 1595SOL    HW2 4827   3.587   3.814   2.325
 1596SOL     OW 4828   3.672   3.876   2.877
 1596SOL    HW1 4829   3.699   3.790   2.839
 1596SOL    HW2 4830   3.603   3.905   2.814
 1597SOL     OW 4831   2.162   4.045   2.486
 1597SOL    HW1 4832   2.070   4.065   2.511
 1597SOL    HW2 4833   2.214   4.081   2.561
 1598SOL     OW 4834   2.943   3.929   2.741
 1598SOL    HW1 4835   2.927   3.863   2.671
 1598SOL    HW2 4836   2.857   3.970   2.750
 1599SOL     OW 4837   1.939   4.040   1.845
 1599SOL    HW1 4838   1.851   4.035   1.803
 1599SOL    HW2 4839   1.979   4.113   1.794
 1600SOL     OW 4840   1.894   3.868   2.091
 1600SOL    HW1 4841   1.881   3.929   2.017
 1600SOL    HW2 4842   1.985   3.837   2.074
 1601SOL     OW 4843   3.053   3.984   2.385
 1601SOL    HW1 4844   3.128   3.923   2.379
 1601SOL    HW2 4845   3.082   4.045   2.455
 1602SOL     OW 4846   2.296   4.189   2.283
 1602SOL    HW1 4847   2.346   4.121   2.234
 1602SOL    HW2 4848   2.248   4.136   2.349
 1603SOL     OW 4849   3.233   3.718   2.118
 1603SOL    HW1 4850   3.301   3.649   2.112
 1603SOL    HW2 4851   3.154   3.671   2.084
 1604SOL     OW 4852   3.133   4.147   2.583
 1604SOL    HW1 4853   3.109   4.239   2.597
 1604SOL    HW2 4854   3.129   4.112   2.674
 1605SOL     OW 4855   3.479   3.938   2.702
 1605SOL    HW1 4856   3.404   3.884   2.733
 1605SOL    HW2 4857   3.438   4.000   2.640
 1606SOL     OW 4858   3.938   0.322   0.994
 1606SOL    HW1 4859   3.989   0.282   1.067
 1606SOL    HW2 4860   3.853   0.275   1.002
 1607SOL     OW 4861   3.690   0.432   0.666
 1607SOL    HW1 4862   3.606   0.475   0.694
 1607SOL    HW2 4863   3.654   0.353   0.622
 1608SOL     OW 4864   4.424   0.999   0.701
 1608SOL    HW1 4865   4.491   1.053   0.743
 1608SOL    HW2 4866   4.348   1.060   0.691
 1609SOL     OW 4867   4.034   1.397   1.046
 1609SOL    HW1 4868   3.978   1.317   1.050
 1609SOL    HW2 4869   3.998   1.442   0.969
 1610SOL     OW 4870   4.202   0.461   1.482
 1610SOL    HW1 4871   4.294   0.478   1.455
 1610SOL    HW2 4872   4.209   0.465   1.579
 1611SOL     OW 4873   4.077   1.633   0.468
 1611SOL    HW1 4874   4.086   1.718   0.512
 1611SOL    HW2 4875   4.170   1.606   0.456
 1612SOL     OW 4876   4.005   1.366   0.464
 1612SOL    HW1 4877   4.031   1.459   0.470
 1612SOL    HW2 4878   3.942   1.356   0.537
 1613SOL     OW 4879   4.034   1.089   0.862
 1613SOL    HW1 4880   4.043   0.999   0.897
 1613SOL    HW2 4881   3.975   1.129   0.928
 1614SOL     OW 4882   3.828   0.669   0.610
 1614SOL    HW1 4883   3.779   0.588   0.631
 1614SOL    HW2 4884   3.825   0.717   0.695
 1615SOL     OW 4885   3.866   0.754   1.656
 1615SOL    HW1 4886   3.961   0.779   1.659
 1615SOL    HW2 4887   3.825   0.842   1.663
 1616SOL     OW 4888   3.971   0.974   1.314
 1616SOL    HW1 4889   4.059   0.949   1.346
 1616SOL    HW2 4890   3.973   0.946   1.221
 1617SOL     OW 4891   4.063   0.221   1.732
 1617SOL    HW1 4892   4.120   0.300   1.740
 1617SOL    HW2 4893   4.041   0.206   1.826
 1618SOL     OW 4894   3.823   0.797   0.850
 1618SOL    HW1 4895   3.899   0.811   0.909
 1618SOL    HW2 4896   3.762   0.866   0.880
 1619SOL     OW 4897   3.841   1.944   1.648
 1619SOL    HW1 4898   3.849   1.897   1.733
 1619SOL    HW2 4899   3.759   1.996   1.661
 1620SOL     OW 4900   0.210   0.294   0.224
 1620SOL    HW1 4901   0.273   0.353   0.177
 1620SOL    HW2 4902   0.224   0.211   0.174
 1621SOL     OW 4903   4.047   1.807   0.805
 1621SOL    HW1 4904   4.094   1.725   0.822
 1621SOL    HW2 4905   4.115   1.873   0.829
 1622SOL     OW 4906   4.169   1.237   1.726
 1622SOL    HW1 4907   4.136   1.256   1.635
 1622SOL    HW2 4908   4.108   1.294   1.779
 1623SOL     OW 4909   3.971   0.314   1.474
 1623SOL    HW1 4910   4.050   0.371   1.476
 1623SOL    HW2 4911   3.981   0.266   1.558
 1624SOL     OW 4912   4.033   1.789   1.271
 1624SOL    HW1 4913   4.031   1.790   1.369
 1624SOL    HW2 4914   4.072   1.703   1.254
 1625SOL     OW 4915   4.084   0.729   0.511
 1625SOL    HW1 4916   4.125   0.648   0.545
 1625SOL    HW2 4917   3.994   0.721   0.546
 1626SOL     OW 4918   0.017   0.067   0.007
 1626SOL    HW1 4919   0.110   0.063   0.035
 1626SOL    HW2 4920   0.002   0.164   0.004
 1627SOL     OW 4921   4.195   0.061   0.362
 1627SOL    HW1 4922   4.146   0.059   0.447
 1627SOL    HW2 4923   4.272   0.115   0.387
 1628SOL     OW 4924   4.214   1.171   0.674
 1628SOL    HW1 4925   4.157   1.148   0.750
 1628SOL    HW2 4926   4.157   1.146   0.600
 1629SOL     OW 4927   3.840   0.599   1.427
 1629SOL    HW1 4928   3.919   0.631   1.379
 1629SOL    HW2 4929   3.834   0.664   1.499
 1630SOL     OW 4930   4.312   0.240   1.123
 1630SOL    HW1 4931   4.335   0.147   1.140
 1630SOL    HW2 4932   4.221   0.245   1.156
 1631SOL     OW 4933   4.212   0.856   1.410
 1631SOL    HW1 4934   4.297   0.866   1.364
 1631SOL    HW2 4935   4.172   0.779   1.366
 1632SOL     OW 4936   3.832   1.554   1.336
 1632SOL    HW1 4937   3.819   1.643   1.302
 1632SOL    HW2 4938   3.929   1.543   1.329
 1633SOL     OW 4939   4.028   1.095   0.470
 1633SOL    HW1 4940   4.036   1.185   0.433
 1633SOL    HW2 4941   4.086   1.041   0.413
 1634SOL     OW 4942   4.273   0.619   0.933
 1634SOL    HW1 4943   4.323   0.658   0.859
 1634SOL    HW2 4944   4.334   0.632   1.008
 1635SOL     OW 4945   4.101   1.508   1.286
 1635SOL    HW1 4946   4.092   1.464   1.199
 1635SOL    HW2 4947   4.197   1.505   1.302
 1636SOL     OW 4948   4.131   0.820   1.667
 1636SOL    HW1 4949   4.161   0.843   1.577
 1636SOL    HW2 4950   4.209   0.777   1.705
 1637SOL     OW 4951   4.197   4.316   1.692
 1637SOL    HW1 4952   4.149   4.261   1.628
 1637SOL    HW2 4953   4.148   4.401   1.687
 1638SOL     OW 4954   4.271   0.945   1.093
 1638SOL    HW1 4955   4.300   1.026   1.049
 1638SOL    HW2 4956   4.345   0.927   1.152
 1639SOL     OW 4957   4.051   0.225   1.224
 1639SOL    HW1 4958   4.027   0.265   1.310
 1639SOL    HW2 4959   4.047   0.130   1.248
 1640SOL     OW 4960   3.760   1.304   1.249
 1640SOL    HW1 4961   3.781   1.251   1.328
 1640SOL    HW2 4962   3.779   1.395   1.279
 1641SOL     OW 4963   4.055   0.091   0.587
 1641SOL    HW1 4964   4.013   0.165   0.634
 1641SOL    HW2 4965   3.987   0.021   0.590
 1642SOL     OW 4966   4.051   1.019   1.842
 1642SOL    HW1 4967   4.102   1.094   1.807
 1642SOL    HW2 4968   4.084   0.946   1.788
 1643SOL     OW 4969   4.030   0.850   1.026
 1643SOL    HW1 4970   4.121   0.879   1.049
 1643SOL    HW2 4971   4.036   0.754   1.040
 1644SOL     OW 4972   4.043   0.569   1.054
 1644SOL    HW1 4973   4.008   0.485   1.019
 1644SOL    HW2 4974   4.125   0.580   1.000
 1645SOL     OW 4975   3.801   1.803   0.939
 1645SOL    HW1 4976   3.767   1.723   0.893
 1645SOL    HW2 4977   3.890   1.811   0.900
 1646SOL     OW 4978   3.704   0.448   1.169
 1646SOL    HW1 4979   3.693   0.369   1.113
 1646SOL    HW2 4980   3.765   0.502   1.116
 1647SOL     OW 4981   3.938   0.506   1.751
 1647SOL    HW1 4982   4.034   0.497   1.743
 1647SOL    HW2 4983   3.921   0.592   1.711
 1648SOL     OW 4984   4.389   0.516   0.285
 1648SOL    HW1 4985   4.444   0.436   0.274
 1648SOL    HW2 4986   4.426   0.555   0.366
 1649SOL     OW 4987   3.915   1.572   1.699
 1649SOL    HW1 4988   3.905   1.645   1.762
 1649SOL    HW2 4989   3.950   1.501   1.756
 1650SOL     OW 4990   4.124   0.454   0.310
 1650SOL    HW1 4991   4.217   0.480   0.295
 1650SOL    HW2 4992   4.076   0.522   0.259
 1651SOL     OW 4993   3.827   1.144   1.465
 1651SOL    HW1 4994   3.823   1.097   1.551
 1651SOL    HW2 4995   3.872   1.077   1.409
 1652SOL     OW 4996   3.849   1.190   1.025
 1652SOL    HW1 4997   3.807   1.227   1.105
 1652SOL    HW2 4998   3.781   1.127   0.995
 1653SOL     OW 4999   3.892   1.790   1.866
 1653SOL    HW1 5000   3.857   1.720   1.925
 1653SOL    HW2 5001   3.939   1.848   1.930
 1654SOL     OW 5002   3.928   0.311   0.717
 1654SOL    HW1 5003   3.851   0.368   0.700
 1654SOL    HW2 5004   3.948   0.328   0.811
 1655SOL     OW 5005   4.064   1.301   1.489
 1655SOL    HW1 5006   4.067   1.370   1.422
 1655SOL    HW2 5007   3.979   1.256   1.471
 1656SOL     OW 5008   4.333   1.553   0.449
 1656SOL    HW1 5009   4.364   1.473   0.495
 1656SOL    HW2 5010   4.408   1.614   0.460
 1657SOL     OW 5011   3.811   1.019   1.708
 1657SOL    HW1 5012   3.735   1.020   1.770
 1657SOL    HW2 5013   3.886   1.031   1.768
 1658SOL     OW 5014   4.013   1.772   1.538
 1658SOL    HW1 5015   3.943   1.831   1.572
 1658SOL    HW2 5016   3.993   1.689   1.584
 1659SOL     OW 5017   0.297   1.463   0.011
 1659SOL    HW1 5018   0.228   1.399   0.036
 1659SOL    HW2 5019   0.310   1.444  -0.084
 1660SOL     OW 5020   3.995   1.378   1.875
 1660SOL    HW1 5021   3.912   1.342   1.912
 1660SOL    HW2 5022   4.041   1.406   1.956
 1661SOL     OW 5023   3.861   1.200   0.664
 1661SOL    HW1 5024   3.907   1.166   0.742
 1661SOL    HW2 5025   3.907   1.152   0.593
 1662SOL     OW 5026   4.427   1.318   1.714
 1662SOL    HW1 5027   4.334   1.293   1.732
 1662SOL    HW2 5028   4.429   1.314   1.618
 1663SOL     OW 5029   4.127   0.456   0.581
 1663SOL    HW1 5030   4.115   0.448   0.484
 1663SOL    HW2 5031   4.052   0.405   0.616
 1664SOL     OW 5032   4.085   0.641   1.309
 1664SOL    HW1 5033   4.127   0.566   1.354
 1664SOL    HW2 5034   4.075   0.609   1.217
 1665SOL     OW 5035   3.787   1.000   0.360
 1665SOL    HW1 5036   3.869   1.025   0.406
 1665SOL    HW2 5037   3.795   0.903   0.355
 1666SOL     OW 5038   3.937   0.545   2.025
 1666SOL    HW1 5039   3.847   0.568   2.054
 1666SOL    HW2 5040   3.923   0.519   1.933
 1667SOL     OW 5041   3.902   0.335   2.874
 1667SOL    HW1 5042   3.956   0.270   2.922
 1667SOL    HW2 5043   3.810   0.308   2.895
 1668SOL     OW 5044   3.705   0.426   2.492
 1668SOL    HW1 5045   3.613   0.450   2.515
 1668SOL    HW2 5046   3.691   0.361   2.420
 1669SOL     OW 5047   4.415   1.092   2.473
 1669SOL    HW1 5048   4.488   1.070   2.534
 1669SOL    HW2 5049   4.338   1.094   2.533
 1670SOL     OW 5050   4.030   1.429   2.961
 1670SOL    HW1 5051   4.053   1.353   3.018
 1670SOL    HW2 5052   4.026   1.387   2.874
 1671SOL     OW 5053   3.919   1.789   2.300
 1671SOL    HW1 5054   3.948   1.833   2.382
 1671SOL    HW2 5055   3.963   1.843   2.232
 1672SOL     OW 5056   3.929   1.517   2.320
 1672SOL    HW1 5057   3.933   1.614   2.306
 1672SOL    HW2 5058   3.887   1.511   2.407
 1673SOL     OW 5059   3.975   1.109   2.757
 1673SOL    HW1 5060   3.993   1.020   2.794
 1673SOL    HW2 5061   3.881   1.102   2.734
 1674SOL     OW 5062   3.838   0.659   2.419
 1674SOL    HW1 5063   3.798   0.575   2.450
 1674SOL    HW2 5064   3.837   0.714   2.500
 1675SOL     OW 5065   3.796   1.583   2.009
 1675SOL    HW1 5066   3.776   1.492   2.034
 1675SOL    HW2 5067   3.745   1.635   2.073
 1676SOL     OW 5068   4.202   0.824   2.152
 1676SOL    HW1 5069   4.271   0.886   2.182
 1676SOL    HW2 5070   4.182   0.772   2.233
 1677SOL     OW 5071   3.831   0.818   2.633
 1677SOL    HW1 5072   3.903   0.821   2.698
 1677SOL    HW2 5073   3.787   0.903   2.649
 1678SOL     OW 5074   4.668   0.303   1.881
 1678SOL    HW1 5075   4.709   0.365   1.944
 1678SOL    HW2 5076   4.666   0.221   1.934
 1679SOL     OW 5077   4.063   1.818   2.806
 1679SOL    HW1 5078   4.105   1.731   2.806
 1679SOL    HW2 5079   4.140   1.877   2.806
 1680SOL     OW 5080   3.999   1.001   2.111
 1680SOL    HW1 5081   4.014   1.015   2.016
 1680SOL    HW2 5082   4.067   0.934   2.129
 1681SOL     OW 5083   4.110   0.669   2.355
 1681SOL    HW1 5084   4.129   0.577   2.380
 1681SOL    HW2 5085   4.014   0.673   2.369
 1682SOL     OW 5086   4.294   0.038   1.946
 1682SOL    HW1 5087   4.348  -0.042   1.958
 1682SOL    HW2 5088   4.266   0.026   1.854
 1683SOL     OW 5089   4.127   0.188   2.266
 1683SOL    HW1 5090   4.112   0.099   2.301
 1683SOL    HW2 5091   4.221   0.188   2.240
 1684SOL     OW 5092   4.050   0.160   2.000
 1684SOL    HW1 5093   4.132   0.109   1.989
 1684SOL    HW2 5094   4.061   0.194   2.091
 1685SOL     OW 5095   4.185   1.201   2.614
 1685SOL    HW1 5096   4.113   1.169   2.673
 1685SOL    HW2 5097   4.137   1.204   2.529
 1686SOL     OW 5098   2.106   3.015   0.049
 1686SOL    HW1 5099   2.043   3.068   0.100
 1686SOL    HW2 5100   2.070   2.924   0.064
 1687SOL     OW 5101   1.625   3.678   0.009
 1687SOL    HW1 5102   1.646   3.764   0.047
 1687SOL    HW2 5103   1.708   3.653  -0.036
 1688SOL     OW 5104   4.020   1.186   2.393
 1688SOL    HW1 5105   4.035   1.241   2.313
 1688SOL    HW2 5106   4.008   1.099   2.353
 1689SOL     OW 5107   4.265   0.552   2.777
 1689SOL    HW1 5108   4.313   0.626   2.738
 1689SOL    HW2 5109   4.311   0.544   2.864
 1690SOL     OW 5110   1.936   3.737   0.128
 1690SOL    HW1 5111   1.918   3.702   0.039
 1690SOL    HW2 5112   2.033   3.732   0.132
 1691SOL     OW 5113   4.291   0.904   2.847
 1691SOL    HW1 5114   4.322   0.996   2.844
 1691SOL    HW2 5115   4.293   0.885   2.943
 1692SOL     OW 5116   4.109   0.100   2.607
 1692SOL    HW1 5117   4.051   0.178   2.604
 1692SOL    HW2 5118   4.079   0.050   2.529
 1693SOL     OW 5119   4.026   0.843   2.822
 1693SOL    HW1 5120   4.122   0.859   2.825
 1693SOL    HW2 5121   4.019   0.754   2.861
 1694SOL     OW 5122   4.021   0.577   2.902
 1694SOL    HW1 5123   3.975   0.492   2.888
 1694SOL    HW2 5124   4.103   0.563   2.850
 1695SOL     OW 5125   3.782   1.289   2.033
 1695SOL    HW1 5126   3.693   1.314   1.999
 1695SOL    HW2 5127   3.763   1.202   2.073
 1696SOL     OW 5128   3.784   1.771   2.827
 1696SOL    HW1 5129   3.764   1.695   2.769
 1696SOL    HW2 5130   3.880   1.782   2.813
 1697SOL     OW 5131   3.751   0.602   3.051
 1697SOL    HW1 5132   3.836   0.606   3.006
 1697SOL    HW2 5133   3.776   0.607   3.145
 1698SOL     OW 5134   4.514   0.480   2.181
 1698SOL    HW1 5135   4.458   0.401   2.179
 1698SOL    HW2 5136   4.492   0.520   2.267
 1699SOL     OW 5137   4.186   0.630   1.964
 1699SOL    HW1 5138   4.200   0.705   2.025
 1699SOL    HW2 5139   4.102   0.596   1.999
 1700SOL     OW 5140   3.927   0.310   2.606
 1700SOL    HW1 5141   3.848   0.353   2.567
 1700SOL    HW2 5142   3.921   0.339   2.699
 1701SOL     OW 5143   4.385   1.567   2.289
 1701SOL    HW1 5144   4.395   1.501   2.359
 1701SOL    HW2 5145   4.455   1.632   2.310
 1702SOL     OW 5146   4.034   1.331   2.160
 1702SOL    HW1 5147   3.950   1.306   2.120
 1702SOL    HW2 5148   4.007   1.410   2.213
 1703SOL     OW 5149   2.181   2.359   0.223
 1703SOL    HW1 5150   2.113   2.422   0.192
 1703SOL    HW2 5151   2.173   2.365   0.320
 1704SOL     OW 5152   3.740   0.342   1.838
 1704SOL    HW1 5153   3.676   0.413   1.823
 1704SOL    HW2 5154   3.820   0.380   1.799
 1705SOL     OW 5155   3.773   0.176   2.048
 1705SOL    HW1 5156   3.753   0.238   1.975
 1705SOL    HW2 5157   3.869   0.162   2.035
 1706SOL     OW 5158   3.813   1.318   2.546
 1706SOL    HW1 5159   3.785   1.238   2.594
 1706SOL    HW2 5160   3.889   1.284   2.495
 1707SOL     OW 5161   4.129   0.401   2.436
 1707SOL    HW1 5162   4.121   0.335   2.364
 1707SOL    HW2 5163   4.053   0.378   2.492
 1708SOL     OW 5164   1.973   2.782   0.085
 1708SOL    HW1 5165   1.997   2.693   0.113
 1708SOL    HW2 5166   1.929   2.765  -0.000
 1709SOL     OW 5167   3.744   1.048   2.174
 1709SOL    HW1 5168   3.839   1.035   2.153
 1709SOL    HW2 5169   3.716   0.955   2.187
 1710SOL     OW 5170   3.949   2.190   0.977
 1710SOL    HW1 5171   3.991   2.150   1.055
 1710SOL    HW2 5172   3.861   2.149   0.979
 1711SOL     OW 5173   3.703   2.314   0.628
 1711SOL    HW1 5174   3.614   2.306   0.668
 1711SOL    HW2 5175   3.694   2.258   0.549
 1712SOL     OW 5176   4.431   2.838   0.655
 1712SOL    HW1 5177   4.499   2.865   0.719
 1712SOL    HW2 5178   4.355   2.893   0.682
 1713SOL     OW 5179   4.051   3.276   1.039
 1713SOL    HW1 5180   3.968   3.225   1.039
 1713SOL    HW2 5181   4.083   3.263   0.950
 1714SOL     OW 5182   4.124   2.293   1.595
 1714SOL    HW1 5183   4.150   2.241   1.674
 1714SOL    HW2 5184   4.069   2.228   1.547
 1715SOL     OW 5185   4.008   3.550   0.470
 1715SOL    HW1 5186   4.036   3.616   0.537
 1715SOL    HW2 5187   4.095   3.512   0.445
 1716SOL     OW 5188   3.912   3.292   0.427
 1716SOL    HW1 5189   3.940   3.384   0.440
 1716SOL    HW2 5190   3.894   3.262   0.518
 1717SOL     OW 5191   4.004   3.004   0.850
 1717SOL    HW1 5192   3.997   2.908   0.868
 1717SOL    HW2 5193   3.945   3.040   0.919
 1718SOL     OW 5194   3.822   2.569   0.570
 1718SOL    HW1 5195   3.786   2.482   0.596
 1718SOL    HW2 5196   3.798   2.625   0.646
 1719SOL     OW 5197   3.928   2.605   1.560
 1719SOL    HW1 5198   4.024   2.607   1.577
 1719SOL    HW2 5199   3.903   2.697   1.582
 1720SOL     OW 5200   3.978   2.822   1.268
 1720SOL    HW1 5201   4.061   2.773   1.280
 1720SOL    HW2 5202   3.949   2.792   1.181
 1721SOL     OW 5203   4.131   2.153   1.835
 1721SOL    HW1 5204   4.148   2.237   1.883
 1721SOL    HW2 5205   4.095   2.098   1.907
 1722SOL     OW 5206   3.758   2.760   0.765
 1722SOL    HW1 5207   3.840   2.747   0.817
 1722SOL    HW2 5208   3.715   2.831   0.815
 1723SOL     OW 5209   3.844   3.745   1.634
 1723SOL    HW1 5210   3.860   3.731   1.730
 1723SOL    HW2 5211   3.790   3.666   1.614
 1724SOL     OW 5212   0.239   2.190   0.049
 1724SOL    HW1 5213   0.287   2.194  -0.036
 1724SOL    HW2 5214   0.278   2.111   0.090
 1725SOL     OW 5215   4.257   1.962   0.877
 1725SOL    HW1 5216   4.264   1.998   0.967
 1725SOL    HW2 5217   4.277   2.041   0.822
 1726SOL     OW 5218   4.164   3.716   0.909
 1726SOL    HW1 5219   4.245   3.669   0.936
 1726SOL    HW2 5220   4.192   3.809   0.922
 1727SOL     OW 5221   4.196   3.052   1.700
 1727SOL    HW1 5222   4.162   3.088   1.616
 1727SOL    HW2 5223   4.135   3.093   1.764
 1728SOL     OW 5224   3.948   2.124   1.470
 1728SOL    HW1 5225   3.863   2.170   1.458
 1728SOL    HW2 5226   3.922   2.054   1.533
 1729SOL     OW 5227   4.033   3.643   1.212
 1729SOL    HW1 5228   4.070   3.557   1.239
 1729SOL    HW2 5229   3.996   3.624   1.124
 1730SOL     OW 5230   4.062   2.639   0.445
 1730SOL    HW1 5231   4.112   2.556   0.454
 1730SOL    HW2 5232   3.980   2.617   0.493
 1731SOL     OW 5233   4.356   1.938   0.099
 1731SOL    HW1 5234   4.405   1.856   0.077
 1731SOL    HW2 5235   4.346   1.977   0.010
 1732SOL     OW 5236   4.243   2.116   0.484
 1732SOL    HW1 5237   4.184   2.054   0.438
 1732SOL    HW2 5238   4.328   2.100   0.437
 1733SOL     OW 5239   4.233   3.018   0.702
 1733SOL    HW1 5240   4.155   3.019   0.762
 1733SOL    HW2 5241   4.190   2.988   0.619
 1734SOL     OW 5242   3.863   2.453   1.339
 1734SOL    HW1 5243   3.957   2.430   1.326
 1734SOL    HW2 5244   3.869   2.513   1.415
 1735SOL     OW 5245   4.294   2.048   1.132
 1735SOL    HW1 5246   4.324   1.985   1.198
 1735SOL    HW2 5247   4.202   2.065   1.161
 1736SOL     OW 5248   4.207   2.665   1.279
 1736SOL    HW1 5249   4.293   2.658   1.323
 1736SOL    HW2 5250   4.171   2.576   1.294
 1737SOL     OW 5251   3.840   3.430   1.348
 1737SOL    HW1 5252   3.814   3.514   1.305
 1737SOL    HW2 5253   3.936   3.427   1.333
 1738SOL     OW 5254   4.108   2.913   0.489
 1738SOL    HW1 5255   4.065   2.954   0.413
 1738SOL    HW2 5256   4.094   2.818   0.475
 1739SOL     OW 5257   4.243   2.437   0.856
 1739SOL    HW1 5258   4.305   2.493   0.806
 1739SOL    HW2 5259   4.287   2.436   0.944
 1740SOL     OW 5260   4.106   3.386   1.280
 1740SOL    HW1 5261   4.097   3.340   1.194
 1740SOL    HW2 5262   4.203   3.385   1.294
 1741SOL     OW 5263   4.192   2.588   1.631
 1741SOL    HW1 5264   4.283   2.613   1.606
 1741SOL    HW2 5265   4.198   2.491   1.639
 1742SOL     OW 5266   4.206   1.960   1.637
 1742SOL    HW1 5267   4.134   1.900   1.612
 1742SOL    HW2 5268   4.167   2.013   1.708
 1743SOL     OW 5269   4.216   2.775   1.028
 1743SOL    HW1 5270   4.284   2.844   1.030
 1743SOL    HW2 5271   4.223   2.734   1.116
 1744SOL     OW 5272   4.035   2.057   1.213
 1744SOL    HW1 5273   4.007   2.088   1.301
 1744SOL    HW2 5274   4.026   1.960   1.223
 1745SOL     OW 5275   3.747   3.191   1.265
 1745SOL    HW1 5276   3.787   3.128   1.328
 1745SOL    HW2 5277   3.776   3.277   1.302
 1746SOL     OW 5278   3.912   1.907   0.586
 1746SOL    HW1 5279   3.917   2.002   0.613
 1746SOL    HW2 5280   3.954   1.866   0.663
 1747SOL     OW 5281   4.115   2.814   1.817
 1747SOL    HW1 5282   4.169   2.887   1.782
 1747SOL    HW2 5283   4.162   2.736   1.783
 1748SOL     OW 5284   3.979   2.732   0.920
 1748SOL    HW1 5285   4.071   2.747   0.954
 1748SOL    HW2 5286   3.973   2.635   0.927
 1749SOL     OW 5287   3.982   2.460   0.947
 1749SOL    HW1 5288   3.965   2.364   0.959
 1749SOL    HW2 5289   4.072   2.457   0.910
 1750SOL     OW 5290   3.887   3.615   0.969
 1750SOL    HW1 5291   3.851   3.541   0.915
 1750SOL    HW2 5292   3.969   3.637   0.922
 1751SOL     OW 5293   3.747   2.525   1.104
 1751SOL    HW1 5294   3.819   2.507   1.042
 1751SOL    HW2 5295   3.788   2.502   1.190
 1752SOL     OW 5296   3.902   2.401   1.744
 1752SOL    HW1 5297   3.982   2.359   1.711
 1752SOL    HW2 5298   3.889   2.471   1.677
 1753SOL     OW 5299   0.258   2.393   0.248
 1753SOL    HW1 5300   0.226   2.312   0.205
 1753SOL    HW2 5301   0.208   2.395   0.332
 1754SOL     OW 5302   3.958   3.400   1.737
 1754SOL    HW1 5303   3.915   3.415   1.823
 1754SOL    HW2 5304   3.999   3.313   1.752
 1755SOL     OW 5305   4.140   2.287   0.191
 1755SOL    HW1 5306   4.209   2.296   0.123
 1755SOL    HW2 5307   4.061   2.317   0.143
 1756SOL     OW 5308   3.888   3.015   1.432
 1756SOL    HW1 5309   3.883   2.965   1.515
 1756SOL    HW2 5310   3.919   2.946   1.369
 1757SOL     OW 5311   3.823   3.117   1.016
 1757SOL    HW1 5312   3.789   3.140   1.105
 1757SOL    HW2 5313   3.749   3.065   0.980
 1758SOL     OW 5314   3.911   3.680   1.884
 1758SOL    HW1 5315   3.892   3.591   1.918
 1758SOL    HW2 5316   3.970   3.716   1.952
 1759SOL     OW 5317   3.926   2.157   0.693
 1759SOL    HW1 5318   3.857   2.224   0.679
 1759SOL    HW2 5319   3.951   2.173   0.785
 1760SOL     OW 5320   4.100   3.183   1.484
 1760SOL    HW1 5321   4.092   3.258   1.423
 1760SOL    HW2 5322   4.022   3.129   1.460
 1761SOL     OW 5323   4.254   3.444   0.429
 1761SOL    HW1 5324   4.268   3.350   0.408
 1761SOL    HW2 5325   4.344   3.479   0.441
 1762SOL     OW 5326   3.891   2.862   1.670
 1762SOL    HW1 5327   3.827   2.878   1.740
 1762SOL    HW2 5328   3.974   2.849   1.721
 1763SOL     OW 5329   4.096   3.624   1.631
 1763SOL    HW1 5330   4.012   3.668   1.614
 1763SOL    HW2 5331   4.066   3.538   1.667
 1764SOL     OW 5332   4.028   3.166   1.874
 1764SOL    HW1 5333   3.943   3.137   1.912
 1764SOL    HW2 5334   4.077   3.187   1.954
 1765SOL     OW 5335   3.850   3.140   0.661
 1765SOL    HW1 5336   3.912   3.094   0.720
 1765SOL    HW2 5337   3.834   3.071   0.593
 1766SOL     OW 5338   4.383   3.241   1.637
 1766SOL    HW1 5339   4.331   3.167   1.673
 1766SOL    HW2 5340   4.338   3.256   1.553
 1767SOL     OW 5341   4.183   2.389   0.443
 1767SOL    HW1 5342   4.168   2.362   0.350
 1767SOL    HW2 5343   4.176   2.303   0.488
 1768SOL     OW 5344   4.134   2.406   1.339
 1768SOL    HW1 5345   4.143   2.371   1.429
 1768SOL    HW2 5346   4.204   2.360   1.292
 1769SOL     OW 5347   3.791   2.961   0.466
 1769SOL    HW1 5348   3.852   2.994   0.399
 1769SOL    HW2 5349   3.771   2.872   0.432
 1770SOL     OW 5350   3.912   2.523   1.990
 1770SOL    HW1 5351   3.831   2.488   2.033
 1770SOL    HW2 5352   3.903   2.488   1.900
 1771SOL     OW 5353   3.944   2.185   2.863
 1771SOL    HW1 5354   3.977   2.141   2.942
 1771SOL    HW2 5355   3.857   2.141   2.853
 1772SOL     OW 5356   3.690   2.279   2.505
 1772SOL    HW1 5357   3.602   2.291   2.546
 1772SOL    HW2 5358   3.668   2.212   2.437
 1773SOL     OW 5359   4.447   2.853   2.488
 1773SOL    HW1 5360   4.505   2.893   2.555
 1773SOL    HW2 5361   4.366   2.907   2.496
 1774SOL     OW 5362   3.935   3.117   2.899
 1774SOL    HW1 5363   3.845   3.149   2.883
 1774SOL    HW2 5364   3.952   3.145   2.989
 1775SOL     OW 5365   3.878   3.605   2.348
 1775SOL    HW1 5366   3.894   3.670   2.418
 1775SOL    HW2 5367   3.968   3.590   2.315
 1776SOL     OW 5368   3.952   3.321   2.356
 1776SOL    HW1 5369   3.901   3.397   2.387
 1776SOL    HW2 5370   3.925   3.251   2.417
 1777SOL     OW 5371   4.045   2.980   2.694
 1777SOL    HW1 5372   4.036   2.888   2.724
 1777SOL    HW2 5373   4.010   3.030   2.772
 1778SOL     OW 5374   3.816   2.509   2.416
 1778SOL    HW1 5375   3.775   2.425   2.444
 1778SOL    HW2 5376   3.807   2.564   2.496
 1779SOL     OW 5377   3.832   3.428   1.979
 1779SOL    HW1 5378   3.808   3.338   2.005
 1779SOL    HW2 5379   3.774   3.481   2.037
 1780SOL     OW 5380   4.255   2.594   2.119
 1780SOL    HW1 5381   4.293   2.678   2.148
 1780SOL    HW2 5382   4.194   2.572   2.192
 1781SOL     OW 5383   3.786   2.660   2.644
 1781SOL    HW1 5384   3.874   2.692   2.670
 1781SOL    HW2 5385   3.759   2.610   2.722
 1782SOL     OW 5386   4.614   2.075   2.141
 1782SOL    HW1 5387   4.711   2.080   2.142
 1782SOL    HW2 5388   4.600   1.998   2.082
 1783SOL     OW 5389   4.301   1.975   2.772
 1783SOL    HW1 5390   4.266   2.065   2.764
 1783SOL    HW2 5391   4.303   1.947   2.677
 1784SOL     OW 5392   4.035   3.765   2.813
 1784SOL    HW1 5393   4.059   3.743   2.905
 1784SOL    HW2 5394   4.115   3.811   2.782
 1785SOL     OW 5395   3.989   2.782   2.068
 1785SOL    HW1 5396   4.043   2.800   1.989
 1785SOL    HW2 5397   3.973   2.686   2.057
 1786SOL     OW 5398   4.078   2.511   2.311
 1786SOL    HW1 5399   4.094   2.416   2.327
 1786SOL    HW2 5400   3.986   2.521   2.341
 1787SOL     OW 5401   4.313   1.899   2.068
 1787SOL    HW1 5402   4.320   1.848   1.987
 1787SOL    HW2 5403   4.218   1.924   2.070
 1788SOL     OW 5404   4.283   1.906   2.520
 1788SOL    HW1 5405   4.192   1.896   2.488
 1788SOL    HW2 5406   4.331   1.929   2.438
 1789SOL     OW 5407   4.233   3.012   2.497
 1789SOL    HW1 5408   4.172   3.010   2.573
 1789SOL    HW2 5409   4.173   2.986   2.425
 1790SOL     OW 5410   4.048   2.946   2.303
 1790SOL    HW1 5411   4.060   3.020   2.241
 1790SOL    HW2 5412   4.035   2.871   2.242
 1791SOL     OW 5413   4.236   2.529   2.750
 1791SOL    HW1 5414   4.306   2.545   2.685
 1791SOL    HW2 5415   4.287   2.503   2.829
 1792SOL     OW 5416   3.999   1.910   2.531
 1792SOL    HW1 5417   3.970   2.003   2.542
 1792SOL    HW2 5418   4.002   1.879   2.623
 1793SOL     OW 5419   4.028   2.713   2.764
 1793SOL    HW1 5420   4.108   2.666   2.735
 1793SOL    HW2 5421   4.002   2.656   2.838
 1794SOL     OW 5422   4.005   2.454   2.884
 1794SOL    HW1 5423   3.976   2.361   2.876
 1794SOL    HW2 5424   4.081   2.457   2.822
 1795SOL     OW 5425   3.814   3.118   2.045
 1795SOL    HW1 5426   3.725   3.150   2.018
 1795SOL    HW2 5427   3.789   3.033   2.087
 1796SOL     OW 5428   3.769   3.640   2.787
 1796SOL    HW1 5429   3.765   3.555   2.739
 1796SOL    HW2 5430   3.865   3.656   2.794
 1797SOL     OW 5431   4.571   2.352   2.122
 1797SOL    HW1 5432   4.562   2.256   2.131
 1797SOL    HW2 5433   4.534   2.385   2.207
 1798SOL     OW 5434   4.163   2.399   1.951
 1798SOL    HW1 5435   4.220   2.458   2.003
 1798SOL    HW2 5436   4.076   2.435   1.974
 1799SOL     OW 5437   3.676   3.207   2.871
 1799SOL    HW1 5438   3.630   3.244   2.948
 1799SOL    HW2 5439   3.616   3.133   2.845
 1800SOL     OW 5440   3.930   2.169   2.580
 1800SOL    HW1 5441   3.843   2.209   2.560
 1800SOL    HW2 5442   3.938   2.186   2.676
 1801SOL     OW 5443   4.315   3.531   2.197
 1801SOL    HW1 5444   4.398   3.545   2.245
 1801SOL    HW2 5445   4.252   3.584   2.248
 1802SOL     OW 5446   4.059   3.176   2.155
 1802SOL    HW1 5447   3.969   3.161   2.122
 1802SOL    HW2 5448   4.041   3.241   2.226
 1803SOL     OW 5449   2.165   4.291   0.258
 1803SOL    HW1 5450   2.201   4.378   0.230
 1803SOL    HW2 5451   2.156   4.302   0.353
 1804SOL     OW 5452   3.736   2.228   1.882
 1804SOL    HW1 5453   3.695   2.183   1.806
 1804SOL    HW2 5454   3.803   2.282   1.837
 1805SOL     OW 5455   3.724   2.039   2.089
 1805SOL    HW1 5456   3.717   2.104   2.016
 1805SOL    HW2 5457   3.821   2.026   2.089
 1806SOL     OW 5458   3.891   3.086   2.490
 1806SOL    HW1 5459   3.937   3.056   2.570
 1806SOL    HW2 5460   3.930   3.028   2.423
 1807SOL     OW 5461   4.094   2.237   2.366
 1807SOL    HW1 5462   4.069   2.179   2.292
 1807SOL    HW2 5463   4.033   2.211   2.437
 1808SOL     OW 5464   3.746   2.872   2.151
 1808SOL    HW1 5465   3.834   2.843   2.122
 1808SOL    HW2 5466   3.706   2.786   2.176
 1809SOL     OW 5467   3.954   3.971   0.995
 1809SOL    HW1 5468   3.983   3.939   1.083
 1809SOL    HW2 5469   3.867   3.927   0.986
 1810SOL     OW 5470   3.702   4.030   0.674
 1810SOL    HW1 5471   3.619   4.058   0.719
 1810SOL    HW2 5472   3.666   3.977   0.601
 1811SOL     OW 5473   4.114   4.125   1.509
 1811SOL    HW1 5474   4.186   4.062   1.517
 1811SOL    HW2 5475   4.035   4.067   1.510
 1812SOL     OW 5476   3.839   4.248   0.594
 1812SOL    HW1 5477   3.795   4.165   0.621
 1812SOL    HW2 5478   3.801   4.310   0.658
 1813SOL     OW 5479   4.038   3.998   1.784
 1813SOL    HW1 5480   4.011   4.086   1.755
 1813SOL    HW2 5481   3.955   3.965   1.823
 1814SOL     OW 5482   3.748   0.109   0.766
 1814SOL    HW1 5483   3.818   0.174   0.748
 1814SOL    HW2 5484   3.678   0.138   0.704
 1815SOL     OW 5485   0.265   4.005   0.171
 1815SOL    HW1 5486   0.257   4.080   0.234
 1815SOL    HW2 5487   0.172   3.999   0.139
 1816SOL     OW 5488   4.280   3.968   0.952
 1816SOL    HW1 5489   4.276   3.970   1.050
 1816SOL    HW2 5490   4.255   4.059   0.929
 1817SOL     OW 5491   3.897   3.963   1.494
 1817SOL    HW1 5492   3.808   4.001   1.497
 1817SOL    HW2 5493   3.884   3.882   1.548
 1818SOL     OW 5494   4.343   3.788   0.542
 1818SOL    HW1 5495   4.257   3.763   0.579
 1818SOL    HW2 5496   4.320   3.806   0.448
 1819SOL     OW 5497   3.806   4.318   1.473
 1819SOL    HW1 5498   3.887   4.313   1.418
 1819SOL    HW2 5499   3.755   4.384   1.424
 1820SOL     OW 5500   4.280   3.951   1.219
 1820SOL    HW1 5501   4.319   3.872   1.259
 1820SOL    HW2 5502   4.185   3.940   1.238
 1821SOL     OW 5503   4.246   4.246   0.945
 1821SOL    HW1 5504   4.279   4.309   0.878
 1821SOL    HW2 5505   4.303   4.268   1.021
 1822SOL     OW 5506   4.239   3.824   1.744
 1822SOL    HW1 5507   4.193   3.747   1.705
 1822SOL    HW2 5508   4.165   3.888   1.754
 1823SOL     OW 5509   4.018   3.905   1.254
 1823SOL    HW1 5510   3.967   3.921   1.336
 1823SOL    HW2 5511   4.018   3.806   1.249
 1824SOL     OW 5512   4.095   3.736   0.649
 1824SOL    HW1 5513   4.044   3.818   0.660
 1824SOL    HW2 5514   4.122   3.718   0.741
 1825SOL     OW 5515   4.005   4.221   1.067
 1825SOL    HW1 5516   3.987   4.132   1.030
 1825SOL    HW2 5517   4.085   4.245   1.016
 1826SOL     OW 5518   3.754   4.190   1.187
 1826SOL    HW1 5519   3.836   4.213   1.141
 1826SOL    HW2 5520   3.759   4.093   1.193
 1827SOL     OW 5521   3.885   4.242   1.730
 1827SOL    HW1 5522   3.849   4.259   1.641
 1827SOL    HW2 5523   3.911   4.330   1.758
 1828SOL     OW 5524   0.258   4.225   0.338
 1828SOL    HW1 5525   0.334   4.196   0.393
 1828SOL    HW2 5526   0.194   4.247   0.408
 1829SOL     OW 5527   4.188   4.231   0.144
 1829SOL    HW1 5528   4.240   4.293   0.090
 1829SOL    HW2 5529   4.187   4.277   0.231
 1830SOL     OW 5530   3.960   3.961   0.719
 1830SOL    HW1 5531   3.866   3.982   0.708
 1830SOL    HW2 5532   3.972   3.972   0.815
 1831SOL     OW 5533   3.674   4.099   0.057
 1831SOL    HW1 5534   3.681   4.042  -0.021
 1831SOL    HW2 5535   3.766   4.131   0.068
 1832SOL     OW 5536   4.112   4.072   0.518
 1832SOL    HW1 5537   4.049   4.080   0.446
 1832SOL    HW2 5538   4.056   4.040   0.591
 1833SOL     OW 5539   4.034   4.306   1.321
 1833SOL    HW1 5540   4.078   4.239   1.378
 1833SOL    HW2 5541   4.031   4.262   1.234
 1834SOL     OW 5542   3.898   4.006   2.818
 1834SOL    HW1 5543   3.950   3.924   2.825
 1834SOL    HW2 5544   3.810   3.974   2.845
 1835SOL     OW 5545   3.672   4.091   2.477
 1835SOL    HW1 5546   3.582   4.096   2.514
 1835SOL    HW2 5547   3.660   4.020   2.410
 1836SOL     OW 5548   3.747   0.017   2.435
 1836SOL    HW1 5549   3.713  -0.075   2.438
 1836SOL    HW2 5550   3.750   0.038   2.531
 1837SOL     OW 5551   3.794   0.074   2.697
 1837SOL    HW1 5552   3.849   0.022   2.758
 1837SOL    HW2 5553   3.852   0.148   2.673
 1838SOL     OW 5554   4.694   4.175   1.909
 1838SOL    HW1 5555   4.708   4.260   1.957
 1838SOL    HW2 5556   4.597   4.165   1.918
 1839SOL     OW 5557   4.226   3.946   2.721
 1839SOL    HW1 5558   4.278   3.917   2.798
 1839SOL    HW2 5559   4.213   4.041   2.739
 1840SOL     OW 5560   4.330   3.879   1.997
 1840SOL    HW1 5561   4.417   3.836   2.006
 1840SOL    HW2 5562   4.300   3.847   1.909
 1841SOL     OW 5563   4.155   3.719   2.323
 1841SOL    HW1 5564   4.104   3.745   2.403
 1841SOL    HW2 5565   4.228   3.784   2.324
 1842SOL     OW 5566   4.059   3.800   2.080
 1842SOL    HW1 5567   4.140   3.841   2.046
 1842SOL    HW2 5568   4.089   3.763   2.164
 1843SOL     OW 5569   4.332   3.824   2.939
 1843SOL    HW1 5570   4.376   3.738   2.921
 1843SOL    HW2 5571   4.263   3.796   3.003
 1844SOL     OW 5572   4.203   4.214   2.756
 1844SOL    HW1 5573   4.185   4.286   2.694
 1844SOL    HW2 5574   4.258   4.259   2.824
 1845SOL     OW 5575   3.990   3.791   2.527
 1845SOL    HW1 5576   3.974   3.887   2.526
 1845SOL    HW2 5577   4.000   3.773   2.622
 1846SOL     OW 5578   3.961   4.264   2.862
 1846SOL    HW1 5579   3.919   4.176   2.866
 1846SOL    HW2 5580   4.047   4.240   2.823
 1847SOL     OW 5581   4.542   0.017   2.256
 1847SOL    HW1 5582   4.581  -0.072   2.247
 1847SOL    HW2 5583   4.518   0.015   2.351
 1848SOL     OW 5584   3.931   4.061   2.549
 1848SOL    HW1 5585   3.837   4.072   2.525
 1848SOL    HW2 5586   3.925   4.056   2.646
 1849SOL     OW 5587   3.770   4.035   1.878
 1849SOL    HW1 5588   3.685   4.037   1.831
 1849SOL    HW2 5589   3.813   4.114   1.841
 1850SOL     OW 5590   3.786   3.859   2.093
 1850SOL    HW1 5591   3.773   3.920   2.017
 1850SOL    HW2 5592   3.882   3.847   2.091
 1851SOL     OW 5593   4.017   4.289   2.400
 1851SOL    HW1 5594   3.923   4.314   2.388
 1851SOL    HW2 5595   4.008   4.199   2.435
 1852NaJ    NaJ 5596   1.440   0.904   1.158
 1853NaJ    NaJ 5597   1.752   0.196   1.676
 1854NaJ    NaJ 5598   1.454   4.212   0.751
 1855NaJ    NaJ 5599   3.755   0.384   1.395
 1856NaJ    NaJ 5600   3.767   1.821   0.424
 1857ClJ    ClJ 5601   0.400   0.463   0.062
 1858ClJ    ClJ 5602   1.022   3.346   1.332
 1859ClJ    ClJ 5603   4.868   3.771   2.871
 1860ClJ    ClJ 5604   2.344   4.164   2.706
 1861ClJ    ClJ 5605   4.020   1.981   2.079
   4.33090   4.33090   3.06241   0.00000   0.00000   0.00000   0.00000   2.16545   2.16545
