ligand in water
 5605
    1LIG      C    1   3.353   3.872   1.569  0.2254 -0.5584 -0.4516
    1LIG     C1    2   3.339   3.720   1.583  0.2531 -0.4979  0.2891
    1LIG      O    3   3.225   3.692   1.666 -0.2640  0.0455 -0.2259
    1LIG     C2    4   3.179   3.566   1.691 -0.1803  0.0370 -0.1115
    1LIG      N    5   3.229   3.473   1.608  0.3202  0.3051 -0.1127
    1LIG     C3    6   3.197   3.346   1.633 -0.0767  0.3277 -0.5043
    1LIG     C4    7   3.111   3.308   1.737  0.2962  0.1114 -0.2753
    1LIG     C5    8   3.049   3.405   1.816  0.0543  0.0852 -0.4330
    1LIG     N1    9   2.961   3.367   1.917  0.5993 -0.0426 -0.0006
    1LIG     C6   10   3.086   3.538   1.791 -0.4002  0.2482 -0.2550
    1LIG     C7   11   3.022   3.640   1.867 -0.0361 -0.1389  0.5808
    1LIG     N2   12   2.963   3.723   1.923  0.2586  0.3001  0.2482
    1LIG     N3   13   3.247   3.244   1.548  0.2075 -0.2807  0.3761
    1LIG     C8   14   3.195   3.120   1.518 -0.1340 -0.1526  0.4269
    1LIG     O1   15   3.080   3.086   1.537 -0.3033  0.1140 -0.0965
    1LIG     C9   16   3.302   3.027   1.461 -0.1012  0.1068  0.0582
    1LIG    C10   17   3.347   2.919   1.557  0.3880  0.2006 -0.0669
    1LIG    C11   18   3.276   2.799   1.567  0.5078  0.1493  0.1674
    1LIG     CL   19   3.148   2.760   1.454  0.4206  0.2143  0.2442
    1LIG    C12   20   3.303   2.707   1.668 -0.5216  0.0787  0.3800
    1LIG    C13   21   3.417   2.725   1.746  0.0252 -0.3456 -0.3163
    1LIG    C14   22   3.499   2.837   1.726 -0.3353  0.0658  0.4624
    1LIG    C15   23   3.454   2.941   1.644  0.1152  0.1236  0.2881
    1LIG      H   24   3.397   3.916   1.659 -2.1020 -0.6957  0.8202
    1LIG     H1   25   3.417   3.895   1.483  0.0781 -1.1723 -0.7306
    1LIG     H2   26   3.262   3.931   1.557  2.4288  3.6528  1.3111
    1LIG     H3   27   3.324   3.672   1.486 -1.0884  0.3486  0.0501
    1LIG     H4   28   3.434   3.689   1.627  0.2023  0.8018  1.3874
    1LIG     H5   29   3.085   3.206   1.764 -4.0960  1.1593  0.1812
    1LIG     H6   30   2.898   3.442   1.942  0.5118  0.4615 -1.5990
    1LIG     H7   31   2.926   3.273   1.933 -0.8711  0.6261  0.8632
    1LIG     H8   32   3.342   3.264   1.519 -0.0540 -2.5886 -2.5799
    1LIG     H9   33   3.261   2.977   1.372 -0.1500 -2.2418  1.3138
    1LIG    H10   34   3.383   3.092   1.427 -0.9260  0.7377 -0.7733
    1LIG    H11   35   3.233   2.625   1.682 -0.3708 -0.0901  0.1316
    1LIG    H12   36   3.439   2.652   1.824 -0.9423 -0.6921 -0.3533
    1LIG    H13   37   3.591   2.850   1.782 -1.0645  3.1927  1.1085
    1LIG    H14   38   3.512   3.033   1.646  0.1160  0.1193  2.0718
    1LIG    EP1   39   3.006   2.717   1.328  0.3237  0.2867  0.3295
    1LIG    DCL   40   3.207   2.560   1.665 -0.1730 -0.1350 -0.2810
    1LIG    HV6   41   2.975   3.270   1.944 -2.1339 -0.0223  1.7709
    1LIG    HV7   42   2.961   3.435   1.992  0.2233  0.1675 -0.1905
    1LIG    HV8   43   3.337   3.271   1.512 -0.2855  0.8742 -0.0441
    1LIG   HV11   44   3.193   2.792   1.497 -0.8147  3.7195  1.1944
    1LIG   DEP1   45   3.101   2.397   1.660  0.2145 -0.3727 -1.0156
    2SOL     OW   46   2.355   2.981   2.603  0.2584 -0.3619 -0.0747
    2SOL    HW1   47   2.351   3.075   2.624  0.7434 -0.6675  1.5643
    2SOL    HW2   48   2.401   2.977   2.519  1.7741  0.8151  0.6390
    3SOL     OW   49   4.422   4.770   0.916 -0.1579 -0.3656 -0.2129
    3SOL    HW1   50   4.332   4.779   0.948 -0.6634  0.9252 -1.8361
    3SOL    HW2   51   4.426   4.681   0.880 -0.8320 -0.3965 -0.2319
    4SOL     OW   52   4.647   0.803   0.792  0.5579  0.1293  0.1991
    4SOL    HW1   53   4.603   0.844   0.718  1.0809  0.6394  0.1662
    4SOL    HW2   54   4.687   0.724   0.755  1.1411  0.5836 -0.1491
    5SOL     OW   55   4.619   1.411   1.536 -0.3505 -0.0071  0.9874
    5SOL    HW1   56   4.625   1.506   1.530 -1.4062  0.0173 -0.0652
    5SOL    HW2   57   4.701   1.385   1.578  0.3840  1.2911  0.4442
    6SOL     OW   58   1.606   1.637   0.461  0.8746  0.1981 -0.3755
    6SOL    HW1   59   1.616   1.732   0.451  0.3621  0.4394  1.1255
    6SOL    HW2   60   1.512   1.624   0.472  1.0808 -0.3112  0.8932
    7SOL     OW   61   0.916   0.843   0.756 -0.3664  0.2939 -0.0708
    7SOL    HW1   62   0.889   0.756   0.785 -1.3500  0.2615 -1.0296
    7SOL    HW2   63   0.924   0.893   0.837 -0.8731 -0.3940  0.4175
    8SOL     OW   64   3.656   2.685   2.954  0.5929  0.0305 -0.3684
    8SOL    HW1   65   3.626   2.603   2.992  0.1839 -0.1380 -1.0566
    8SOL    HW2   66   3.700   2.730   3.027  0.0753 -0.4177  0.2326
    9SOL     OW   67   5.016   1.365   1.432 -0.2989 -0.3450  0.6545
    9SOL    HW1   68   4.998   1.360   1.526 -1.3850  0.8111  0.5371
    9SOL    HW2   69   5.056   1.280   1.411  0.6275 -0.3585  2.2728
   10SOL     OW   70   5.126   4.879   1.913 -0.2092  0.5286  0.3022
   10SOL    HW1   71   5.165   4.963   1.889  0.9158  0.1873  0.8745
   10SOL    HW2   72   5.095   4.892   2.003 -0.5619  0.5100  0.1829
   11SOL     OW   73   0.701   1.018   0.678 -0.0393 -0.3693 -0.1125
   11SOL    HW1   74   0.765   0.954   0.708 -0.0068 -0.4209 -0.2882
   11SOL    HW2   75   0.619   0.990   0.717 -0.1256 -0.8175 -0.5976
   12SOL     OW   76   5.269   5.106   1.832  0.1008 -0.1818  0.2885
   12SOL    HW1   77   5.308   5.178   1.882  0.6482 -1.1623  1.3152
   12SOL    HW2   78   5.325   5.098   1.756  1.5346 -1.0973  1.3904
   13SOL     OW   79   4.145   1.339   1.155 -0.2619  1.0191 -0.7238
   13SOL    HW1   80   4.174   1.290   1.078 -0.5784 -1.3394  0.5869
   13SOL    HW2   81   4.216   1.402   1.170  2.1594 -1.6530 -0.2059
   14SOL     OW   82   1.466   1.485   1.278  0.4615  0.1608  0.1187
   14SOL    HW1   83   1.440   1.563   1.326 -0.0624  0.3258 -0.4101
   14SOL    HW2   84   1.490   1.421   1.345  1.6139  1.0188  0.5294
   15SOL     OW   85   4.458   4.806   1.399  0.6722  0.1921 -0.2167
   15SOL    HW1   86   4.399   4.774   1.331  0.7698  0.0433 -0.2347
   15SOL    HW2   87   4.540   4.759   1.382  0.3579 -0.7353  0.6989
   16SOL     OW   88   1.857   0.461   0.529 -0.4303  0.1677  0.1337
   16SOL    HW1   89   1.808   0.542   0.517 -1.4273 -0.2622  1.1008
   16SOL    HW2   90   1.820   0.422   0.609  0.0900 -1.1775 -0.2478
   17SOL     OW   91   4.608   1.527   0.723  0.6613 -0.5241  0.3811
   17SOL    HW1   92   4.702   1.522   0.707  0.3373 -1.3979 -1.4538
   17SOL    HW2   93   4.585   1.618   0.704  1.0315 -0.4577  0.2506
   18SOL     OW   94   1.249   5.427   1.664 -0.9503  0.2309 -0.3072
   18SOL    HW1   95   1.277   5.362   1.728  0.0151  0.4506 -0.4785
   18SOL    HW2   96   1.222   5.377   1.587  0.6997  0.0141 -0.7989
   19SOL     OW   97   0.446   1.296   0.453  0.5046 -0.1520  0.5857
   19SOL    HW1   98   0.507   1.302   0.380 -0.4885  1.2193 -0.1798
   19SOL    HW2   99   0.375   1.241   0.420 -0.1540  0.8202  0.3232
   20SOL     OW  100   4.671   1.127   1.337  0.0098 -0.0500 -0.4701
   20SOL    HW1  101   4.658   1.176   1.418 -0.4052 -1.7051  0.5104
   20SOL    HW2  102   4.764   1.104   1.337  0.3336  1.1277 -1.2093
   21SOL     OW  103   4.691   1.686   1.596 -0.5031  0.4266 -0.2354
   21SOL    HW1  104   4.685   1.745   1.522 -0.8561  4.6209  2.8028
   21SOL    HW2  105   4.781   1.695   1.627  0.2813 -2.8485 -1.0995
   22SOL     OW  106   0.703   0.951   0.416  0.5783  0.2199 -0.9942
   22SOL    HW1  107   0.712   0.978   0.508  1.0539 -0.7260 -0.7504
   22SOL    HW2  108   0.718   1.032   0.366  1.1248  0.5876 -0.2640
   23SOL     OW  109   1.614   4.392   1.551 -0.1537  0.5555 -0.0087
   23SOL    HW1  110   1.622   4.312   1.603  0.0788  0.2878 -0.4624
   23SOL    HW2  111   1.698   4.402   1.507 -0.7743  0.0669 -1.3674
   24SOL     OW  112   0.710   0.626   0.916 -0.2744 -0.3847  0.1087
   24SOL    HW1  113   0.677   0.712   0.943 -0.5974 -0.0936 -1.1631
   24SOL    HW2  114   0.718   0.577   0.998 -1.0634  0.5188  0.7460
   25SOL     OW  115   1.925   1.473   0.100 -0.4492 -0.1183  0.1008
   25SOL    HW1  116   1.891   1.555   0.065 -0.9981 -0.5963 -0.5216
   25SOL    HW2  117   1.879   1.462   0.183  0.8909  1.0433  1.0361
   26SOL     OW  118   0.313   1.528   0.159  0.2127  0.1804 -0.5154
   26SOL    HW1  119   0.332   1.457   0.098  0.0895  1.0254 -1.5695
   26SOL    HW2  120   0.399   1.562   0.184  0.3049 -0.8494  0.6410
   27SOL     OW  121   1.715   0.720   0.483  0.2662  0.5808  0.4980
   27SOL    HW1  122   1.757   0.789   0.534 -0.2207 -0.3835  2.2786
   27SOL    HW2  123   1.712   0.755   0.393  1.1921  2.3066  1.0924
   28SOL     OW  124   1.777   0.847   0.239 -0.1396 -0.4032 -0.5275
   28SOL    HW1  125   1.786   0.881   0.150 -2.1090 -0.2405 -0.7062
   28SOL    HW2  126   1.864   0.860   0.278  0.3308  0.9566 -1.9152
   29SOL     OW  127   4.419   4.990   1.764 -0.3648  0.2484  0.1007
   29SOL    HW1  128   4.367   5.071   1.757  0.1654  0.7141  1.1762
   29SOL    HW2  129   4.506   5.015   1.734 -0.1410  0.1490  0.6481
   30SOL     OW  130   4.648   1.407   0.977 -0.1844 -0.0569  0.1063
   30SOL    HW1  131   4.603   1.433   0.897 -0.4592 -2.5285 -0.6281
   30SOL    HW2  132   4.583   1.354   1.025  0.8625 -0.9499  0.5854
   31SOL     OW  133   1.475   1.035   1.441  0.3761 -0.0171 -0.1165
   31SOL    HW1  134   1.519   1.019   1.358 -0.8172  0.0967 -0.7830
   31SOL    HW2  135   1.385   1.007   1.427  0.1898 -0.1748  1.2043
   32SOL     OW  136   0.561   4.381   0.692 -0.5062 -0.8193 -0.1625
   32SOL    HW1  137   0.650   4.412   0.709 -0.9333  1.4926 -1.7216
   32SOL    HW2  138   0.567   4.339   0.606 -0.4606 -3.0259  0.8471
   33SOL     OW  139   4.729   5.304   1.600  0.1270 -0.6533  0.0840
   33SOL    HW1  140   4.673   5.242   1.551 -0.0364 -1.7418  1.5790
   33SOL    HW2  141   4.807   5.314   1.545 -1.0307  0.0328 -1.5193
   34SOL     OW  142   1.418   1.174   0.410  0.4757 -0.2422 -0.2689
   34SOL    HW1  143   1.377   1.096   0.446  0.7695 -0.8367 -1.1857
   34SOL    HW2  144   1.480   1.141   0.345  1.6935  0.6757  0.3744
   35SOL     OW  145   1.630   1.843   1.244 -0.5554 -0.1884 -0.0011
   35SOL    HW1  146   1.566   1.775   1.259 -0.3779 -0.7530 -1.6962
   35SOL    HW2  147   1.605   1.883   1.161  1.8602 -1.1401 -1.2664
   36SOL     OW  148   4.700   4.466   1.832  0.1398 -0.4971  0.3986
   36SOL    HW1  149   4.727   4.471   1.923 -0.9482 -2.4859  0.8892
   36SOL    HW2  150   4.694   4.557   1.803  1.7901  0.1269  1.8890
   37SOL     OW  151   1.248   1.422   1.112 -0.0103  0.1909 -0.3018
   37SOL    HW1  152   1.303   1.416   1.190  2.0413  1.5036 -1.5568
   37SOL    HW2  153   1.163   1.452   1.145  0.2235 -0.9988  1.5840
   38SOL     OW  154   1.819   1.910   0.511 -0.2824 -0.0686 -0.1902
   38SOL    HW1  155   1.793   1.975   0.576  0.9632  1.9128 -1.5768
   38SOL    HW2  156   1.748   1.910   0.447 -1.0819 -1.3651  0.6521
   39SOL     OW  157   0.439   0.765   0.414 -0.6068 -0.5700  0.4729
   39SOL    HW1  158   0.524   0.810   0.411 -0.7164 -0.3769  0.2415
   39SOL    HW2  159   0.456   0.680   0.373 -0.5226 -0.5388  0.4413
   40SOL     OW  160   1.179   4.208   1.237 -0.2934  0.2366  0.2061
   40SOL    HW1  161   1.137   4.287   1.273 -2.0072  0.1944 -1.5179
   40SOL    HW2  162   1.125   4.136   1.269  0.6790 -0.1813  0.9522
   41SOL     OW  163   1.640   2.040   0.643 -0.2491 -0.5600  0.5353
   41SOL    HW1  164   1.635   2.075   0.731  1.5597 -1.7929  1.1768
   41SOL    HW2  165   1.599   1.953   0.649 -0.6084 -0.4345  0.0270
   42SOL     OW  166   5.032   4.630   1.822 -0.4751  0.2641  0.3594
   42SOL    HW1  167   5.017   4.609   1.730 -1.7259 -0.3719  0.6791
   42SOL    HW2  168   5.059   4.721   1.822 -0.9220  0.4058 -0.6092
   43SOL     OW  169   1.200   4.766   1.448 -0.9898 -0.3735 -0.1823
   43SOL    HW1  170   1.193   4.763   1.543  0.8972 -0.3809 -0.0065
   43SOL    HW2  171   1.225   4.677   1.423 -0.2527 -0.0760 -0.5415
   44SOL     OW  172   5.094   4.527   1.530  0.1327  0.6617  0.2750
   44SOL    HW1  173   5.124   4.616   1.514  2.2627 -0.4075 -2.6110
   44SOL    HW2  174   5.013   4.519   1.481  0.5774  0.6744 -0.4637
   45SOL     OW  175   1.045   4.817   1.131  0.2232  0.0921  0.2224
   45SOL    HW1  176   0.985   4.773   1.071 -0.1049  1.5048 -0.5154
   45SOL    HW2  177   1.132   4.785   1.105 -0.1000 -1.3056  0.7456
   46SOL     OW  178   1.132   0.429   0.562 -0.4894 -0.3801  0.0552
   46SOL    HW1  179   1.039   0.436   0.540 -0.2945 -0.9541 -1.0140
   46SOL    HW2  180   1.174   0.494   0.506 -0.1559 -0.7523 -0.1317
   47SOL     OW  181   4.800   5.062   1.200  0.2067  0.2687 -0.1788
   47SOL    HW1  182   4.812   5.000   1.271  1.5707 -0.5737 -1.1100
   47SOL    HW2  183   4.760   5.011   1.130 -1.0255  1.0671 -0.0966
   48SOL     OW  184   4.525   1.664   1.841  0.6404 -0.5886 -0.7526
   48SOL    HW1  185   4.575   1.687   1.762  0.4004 -2.0512 -1.3602
   48SOL    HW2  186   4.534   1.569   1.849  1.1208 -0.4074  1.3223
   49SOL     OW  187   0.744   0.458   0.159  0.5307  0.3112 -0.0456
   49SOL    HW1  188   0.689   0.501   0.225  2.7916  2.1924  0.7874
   49SOL    HW2  189   0.709   0.488   0.075 -0.9072 -0.1618  0.3575
   50SOL     OW  190   1.821   5.152   1.995 -0.2087  0.3376  0.1766
   50SOL    HW1  191   1.742   5.098   2.002 -1.0522  1.6368  1.3414
   50SOL    HW2  192   1.851   5.163   2.086  0.9057  0.4303 -0.1917
   51SOL     OW  193   1.372   1.551   0.581  0.4462 -0.1483  0.2236
   51SOL    HW1  194   1.326   1.554   0.665  0.8860  0.3515  0.4453
   51SOL    HW2  195   1.311   1.504   0.523  0.9116 -2.1821  1.2875
   52SOL     OW  196   4.647   4.612   1.069 -0.3191 -0.1322 -0.2081
   52SOL    HW1  197   4.664   4.549   0.999  0.9911  0.2318 -0.2430
   52SOL    HW2  198   4.573   4.664   1.037  0.3920  0.1648 -1.4343
   53SOL     OW  199   1.062   1.706   0.575 -0.6667  0.2568  0.2795
   53SOL    HW1  200   1.128   1.712   0.644  0.1374  2.7586 -0.6008
   53SOL    HW2  201   1.084   1.626   0.528 -0.2197 -0.6155  1.8756
   54SOL     OW  202   0.563   1.794   0.730  0.1689 -0.1861 -0.0553
   54SOL    HW1  203   0.556   1.705   0.696 -0.6995  0.1414 -0.7787
   54SOL    HW2  204   0.657   1.809   0.740  0.2888 -1.6103  1.2655
   55SOL     OW  205   1.794   0.869   0.928  0.6426  0.5775 -0.1723
   55SOL    HW1  206   1.872   0.925   0.922 -0.0179  1.3851 -1.8779
   55SOL    HW2  207   1.820   0.788   0.884  0.0706  1.4781 -2.3539
   56SOL     OW  208   1.477   1.310   1.524 -0.4156  0.2038 -0.3988
   56SOL    HW1  209   1.500   1.312   1.617  0.8435  0.6613 -0.6959
   56SOL    HW2  210   1.467   1.217   1.504  3.0258 -0.2856 -0.5864
   57SOL     OW  211   4.454   1.172   0.949 -0.1606 -0.1320  0.1187
   57SOL    HW1  212   4.513   1.103   0.979 -0.9646 -0.9373 -0.1132
   57SOL    HW2  213   4.480   1.187   0.858 -0.8477 -1.0903 -0.2507
   58SOL     OW  214   1.436   0.854   0.878  0.0795  0.3664 -0.3400
   58SOL    HW1  215   1.438   0.792   0.805  2.5023 -0.5597  0.4078
   58SOL    HW2  216   1.385   0.928   0.844 -0.2606 -0.7082 -2.3714
   59SOL     OW  217   5.169   5.257   2.100  0.5517 -0.1832 -0.2475
   59SOL    HW1  218   5.148   5.165   2.109 -1.4650  0.0733 -1.6972
   59SOL    HW2  219   5.258   5.258   2.063  1.6671 -1.4204  2.1712
   60SOL     OW  220   0.935   1.830   0.359 -0.4132 -0.0202 -0.5710
   60SOL    HW1  221   0.996   1.872   0.298 -1.8664  1.5911 -0.9932
   60SOL    HW2  222   0.987   1.814   0.438  0.8314  0.2196 -1.3165
   61SOL     OW  223   4.276   4.664   1.236  0.3673 -0.4934  0.4350
   61SOL    HW1  224   4.237   4.580   1.263  0.1525 -0.7160 -0.5359
   61SOL    HW2  225   4.230   4.687   1.156  1.2177 -0.0157  0.0744
   62SOL     OW  226   1.611   1.080   0.254  0.2169 -0.1478  0.6132
   62SOL    HW1  227   1.691   1.036   0.284  0.4213  0.1780  0.5480
   62SOL    HW2  228   1.616   1.075   0.159 -0.5295 -1.3578  0.6075
   63SOL     OW  229   0.806   1.473   0.213 -0.0370  0.3448  0.1216
   63SOL    HW1  230   0.741   1.538   0.242  1.8548  1.9391  1.0709
   63SOL    HW2  231   0.873   1.525   0.168  1.1545 -1.0723  0.2008
   64SOL     OW  232   1.381   4.189   0.694  0.5053 -0.2608  0.3858
   64SOL    HW1  233   1.293   4.204   0.660  0.6710 -1.7427 -0.8263
   64SOL    HW2  234   1.438   4.189   0.616  1.0161 -2.9225  0.6559
   65SOL     OW  235   4.467   1.704   1.058  0.0100 -0.3760 -0.4357
   65SOL    HW1  236   4.551   1.713   1.014  0.0342  0.3667 -0.2489
   65SOL    HW2  237   4.402   1.731   0.993 -0.0514 -0.5257 -0.4373
   66SOL     OW  238   0.814   1.719   0.731 -0.1725  0.3538 -0.0112
   66SOL    HW1  239   0.876   1.686   0.665  0.2236  0.5118  0.2788
   66SOL    HW2  240   0.831   1.666   0.808 -0.4397  0.3630  0.0539
   67SOL     OW  241   0.630   0.524   0.670  0.3572 -0.1279 -0.3623
   67SOL    HW1  242   0.535   0.535   0.672  0.3929  0.1818 -0.2003
   67SOL    HW2  243   0.661   0.580   0.741  0.7804  0.9887 -1.4059
   68SOL     OW  244   1.226   4.729   1.723 -0.2640  0.2236 -0.2818
   68SOL    HW1  245   1.287   4.656   1.733 -2.0836 -1.1643  1.3537
   68SOL    HW2  246   1.256   4.794   1.786 -0.1975 -0.2544  0.1830
   69SOL     OW  247   0.458   0.160   0.129 -0.0629 -0.0505 -0.0586
   69SOL    HW1  248   0.536   0.151   0.074 -0.4472  0.2235 -0.6727
   69SOL    HW2  249   0.491   0.193   0.212  0.6021 -0.9984  0.0713
   70SOL     OW  250   5.077   4.263   2.075  0.1987  0.1114  0.2743
   70SOL    HW1  251   5.066   4.298   1.986  1.3597 -0.6545 -0.1998
   70SOL    HW2  252   4.990   4.267   2.113 -0.6705 -0.9354 -1.4410
   71SOL     OW  253   5.005   1.393   1.148  0.0607 -0.0528 -0.0691
   71SOL    HW1  254   4.950   1.356   1.218 -0.3521 -0.7582 -0.7478
   71SOL    HW2  255   4.962   1.476   1.127 -1.1494 -0.8672 -1.0059
   72SOL     OW  256   1.442   4.911   1.199 -0.5496 -0.3265 -0.4978
   72SOL    HW1  257   1.355   4.948   1.191 -0.6656 -0.8192 -1.7436
   72SOL    HW2  258   1.481   4.956   1.274 -1.0219  1.5889 -1.3548
   73SOL     OW  259   4.806   1.132   0.965  0.0328 -0.2960 -0.3074
   73SOL    HW1  260   4.753   1.201   1.005 -1.7826 -1.4623 -0.5506
   73SOL    HW2  261   4.801   1.149   0.871 -0.8923 -1.0364 -0.4077
   74SOL     OW  262   4.941   4.708   1.032 -0.5897  0.0539 -0.1385
   74SOL    HW1  263   4.954   4.649   0.958  1.4445 -0.4696  0.5623
   74SOL    HW2  264   4.848   4.699   1.053 -0.0259 -5.4035  1.8069
   75SOL     OW  265   0.540   4.593   0.419  0.4429  0.2493 -0.4145
   75SOL    HW1  266   0.500   4.675   0.448  2.0101  0.3522  1.7393
   75SOL    HW2  267   0.498   4.526   0.474  0.4428 -0.1605 -0.9076
   76SOL     OW  268   1.288   1.329   0.191  0.1427  0.2020 -0.5980
   76SOL    HW1  269   1.310   1.268   0.262  0.3629  1.6220  0.6013
   76SOL    HW2  270   1.269   1.273   0.116  2.9420 -1.2820 -0.3175
   77SOL     OW  271   2.205   2.538   2.964  0.4857 -0.1932 -0.5374
   77SOL    HW1  272   2.299   2.537   2.983  0.0849  1.1795  2.0575
   77SOL    HW2  273   2.172   2.456   3.002  0.3499  0.4691  0.8759
   78SOL     OW  274   1.019   4.607   0.737  0.0106  0.2421 -0.5898
   78SOL    HW1  275   1.072   4.527   0.726  0.7713  0.4583  1.1315
   78SOL    HW2  276   1.066   4.674   0.687  1.1788  0.3349  0.5853
   79SOL     OW  277   1.028   4.541   1.287 -0.3551  0.0421 -0.1768
   79SOL    HW1  278   1.076   4.570   1.210 -0.3692 -0.5851 -0.4249
   79SOL    HW2  279   0.940   4.521   1.254 -0.0948 -1.1470 -0.1881
   80SOL     OW  280   1.184   1.663   0.829 -0.4728  0.0314  0.2113
   80SOL    HW1  281   1.207   1.743   0.876  0.8619 -0.6127  0.7045
   80SOL    HW2  282   1.098   1.639   0.862 -0.0092  0.1680  1.5582
   81SOL     OW  283   4.912   0.866   1.000  0.1066  0.0994  0.3517
   81SOL    HW1  284   4.844   0.834   1.060 -1.1655 -0.0180 -1.0866
   81SOL    HW2  285   4.875   0.946   0.962  0.4820 -0.3089 -0.9290
   82SOL     OW  286   1.220   2.023   0.727 -0.4732 -0.2062 -0.2650
   82SOL    HW1  287   1.259   1.988   0.647  0.4648  1.5568 -0.6247
   82SOL    HW2  288   1.128   1.998   0.721  0.1315 -2.6455 -0.4144
   83SOL     OW  289   3.371   2.439   2.888 -0.3469  0.1656 -0.0713
   83SOL    HW1  290   3.453   2.416   2.843 -0.6287  0.4920 -0.7733
   83SOL    HW2  291   3.392   2.432   2.981  0.5192  0.3719 -0.2359
   84SOL     OW  292   4.802   5.490   1.865 -0.3172  0.2563  0.3627
   84SOL    HW1  293   4.777   5.505   1.956 -1.1253  1.3899 -0.0232
   84SOL    HW2  294   4.886   5.445   1.871 -0.0823  0.8026  1.6669
   85SOL     OW  295   4.871   4.462   1.395 -0.0307  0.1272 -0.4727
   85SOL    HW1  296   4.872   4.392   1.329 -0.4576  0.3200 -0.6880
   85SOL    HW2  297   4.814   4.428   1.464  1.4184 -0.6079  0.4033
   86SOL     OW  298   0.744   4.605   0.773 -0.1628 -0.0796 -0.2810
   86SOL    HW1  299   0.686   4.668   0.732  0.0942  1.1725  1.1913
   86SOL    HW2  300   0.824   4.606   0.720  0.3639  1.8845  0.4834
   87SOL     OW  301   0.785   4.178   0.809 -0.0590  0.2803  0.6956
   87SOL    HW1  302   0.695   4.171   0.840 -0.7375 -1.0707 -1.3637
   87SOL    HW2  303   0.776   4.195   0.715  1.8465  0.8492  0.5805
   88SOL     OW  304   1.610   1.417   0.619 -0.2273  0.0371  0.3139
   88SOL    HW1  305   1.525   1.455   0.641  0.4382  0.9506  1.3706
   88SOL    HW2  306   1.653   1.484   0.565 -0.4864 -0.7759 -0.9625
   89SOL     OW  307   1.228   4.610   1.090  0.1310 -0.6962 -0.0228
   89SOL    HW1  308   1.225   4.541   1.024  1.7559  0.2944 -1.1869
   89SOL    HW2  309   1.316   4.605   1.127  0.0248  0.2908  0.3979
   90SOL     OW  310   2.123   0.523   0.578 -0.0753 -0.3846 -0.0674
   90SOL    HW1  311   2.095   0.614   0.592  0.3428 -0.0815 -1.1391
   90SOL    HW2  312   2.046   0.480   0.542 -0.6716 -0.7876  1.6070
   91SOL     OW  313   0.587   1.301   0.204  0.4513  0.4101  0.0647
   91SOL    HW1  314   0.657   1.357   0.171  0.0566  1.0088  0.2358
   91SOL    HW2  315   0.567   1.241   0.132  1.3196  0.0574  0.1085
   92SOL     OW  316   1.697   1.168   0.545 -0.0424  0.2955 -0.2808
   92SOL    HW1  317   1.634   1.156   0.473  0.0183  2.8931 -0.9005
   92SOL    HW2  318   1.667   1.248   0.589  1.2044 -0.0239  1.2261
   93SOL     OW  319   1.289   0.637   0.453 -0.3135 -0.1070  0.6052
   93SOL    HW1  320   1.225   0.708   0.457  0.4259  0.5788  0.4155
   93SOL    HW2  321   1.288   0.608   0.362 -1.4859 -1.1857  0.9141
   94SOL     OW  322   0.249   0.422   0.208  0.1183  0.2480 -0.1442
   94SOL    HW1  323   0.254   0.364   0.132 -1.2246  0.1243 -0.1723
   94SOL    HW2  324   0.166   0.469   0.196  0.7801  1.5617  0.3159
   95SOL     OW  325   1.743   1.361   1.444  0.4142  0.2753  0.1738
   95SOL    HW1  326   1.764   1.334   1.355  0.2714  2.5140 -0.5927
   95SOL    HW2  327   1.660   1.319   1.463  1.5357 -2.1173  0.1842
   96SOL     OW  328   1.602   5.285   1.675  0.3113  0.0802 -0.1303
   96SOL    HW1  329   1.690   5.253   1.653  0.7819  1.5487 -0.4598
   96SOL    HW2  330   1.564   5.309   1.591 -0.2583 -0.1560  0.0547
   97SOL     OW  331   1.436   1.712   1.426  0.1055  0.0664  0.1831
   97SOL    HW1  332   1.524   1.678   1.443 -0.6640 -1.4288  1.4721
   97SOL    HW2  333   1.424   1.781   1.492 -0.1920 -0.7092  0.9541
   98SOL     OW  334   1.182   1.339   1.416  0.0270 -0.1343  0.3315
   98SOL    HW1  335   1.156   1.431   1.415  0.6452  0.1512  2.7707
   98SOL    HW2  336   1.272   1.340   1.449 -0.1999 -1.6234  1.0812
   99SOL     OW  337   1.677   1.176   0.866 -0.5053  0.1187  0.2742
   99SOL    HW1  338   1.645   1.264   0.884 -1.9488 -0.0336 -1.2716
   99SOL    HW2  339   1.695   1.176   0.772  2.1803 -0.4503  0.7253
  100SOL     OW  340   1.043   4.217   1.515 -0.1249 -0.2943 -0.5701
  100SOL    HW1  341   1.024   4.247   1.603 -0.4199 -1.3123 -0.2690
  100SOL    HW2  342   0.963   4.236   1.466 -0.1527 -0.1987 -0.4876
  101SOL     OW  343   5.445   5.080   1.637  0.2726  0.7881  0.0821
  101SOL    HW1  344   5.474   4.989   1.633  1.4360  1.0910  0.9190
  101SOL    HW2  345   5.453   5.112   1.547 -1.5450 -0.3095 -0.5135
  102SOL     OW  346   0.917   1.288   0.394 -0.1061 -0.3136  0.3486
  102SOL    HW1  347   0.902   1.203   0.353 -0.2553  0.2757 -0.8412
  102SOL    HW2  348   0.868   1.350   0.340  0.8972  0.6843  0.5512
  103SOL     OW  349   5.077   4.841   1.528 -0.2902 -0.5393  0.2062
  103SOL    HW1  350   5.165   4.859   1.496 -1.0833  1.0549 -1.2348
  103SOL    HW2  351   5.049   4.923   1.571 -2.0516  0.0117 -1.8203
  104SOL     OW  352   5.151   4.289   1.369 -0.0534 -0.4261 -0.4202
  104SOL    HW1  353   5.126   4.350   1.438 -0.8953 -0.1464 -0.9593
  104SOL    HW2  354   5.159   4.343   1.291  1.6194 -0.6196 -0.4095
  105SOL     OW  355   4.114   1.426   1.552 -0.0956  0.8680 -0.4943
  105SOL    HW1  356   4.171   1.489   1.509  1.2331  0.2879  0.3396
  105SOL    HW2  357   4.074   1.475   1.624  0.0953  1.0565 -0.5153
  106SOL     OW  358   4.774   1.142   0.696 -0.1972 -0.5789  0.3292
  106SOL    HW1  359   4.825   1.150   0.615  1.6016  0.1945  1.4868
  106SOL    HW2  360   4.686   1.169   0.671  0.5550  0.6741 -1.1421
  107SOL     OW  361   4.638   4.937   1.026  0.6041  0.1392  0.4719
  107SOL    HW1  362   4.558   4.884   1.019 -0.0530  1.1740 -0.0674
  107SOL    HW2  363   4.686   4.919   0.945 -0.0035  0.9609 -0.0829
  108SOL     OW  364   1.343   1.702   0.316  0.3346  0.0639  0.3653
  108SOL    HW1  365   1.408   1.710   0.246  0.1748  1.5927  0.3642
  108SOL    HW2  366   1.285   1.632   0.286  1.1559 -0.3497 -0.3068
  109SOL     OW  367   1.519   1.385   1.014  0.6696 -0.1823  0.0734
  109SOL    HW1  368   1.512   1.437   1.093  1.8159  2.0623 -1.2081
  109SOL    HW2  369   1.457   1.426   0.953  1.2863 -0.5901 -0.8478
  110SOL     OW  370   1.487   0.701   0.652  0.1551 -0.3524  0.5246
  110SOL    HW1  371   1.577   0.707   0.621  0.1066  1.3967  0.5930
  110SOL    HW2  372   1.440   0.656   0.581  0.9645 -0.7892  0.2529
  111SOL     OW  373   4.385   1.470   1.190 -0.2194  0.9982 -0.7588
  111SOL    HW1  374   4.464   1.435   1.230  0.4986  1.3207 -1.8647
  111SOL    HW2  375   4.412   1.554   1.154 -1.4567  1.8679  0.2158
  112SOL     OW  376   4.381   4.699   1.668 -0.4755 -0.2607  0.2497
  112SOL    HW1  377   4.384   4.787   1.705 -0.0504  0.0956 -0.5996
  112SOL    HW2  378   4.406   4.711   1.577 -1.0995 -1.1743 -0.0488
  113SOL     OW  379   2.103   5.140   1.613 -0.2005  0.0524  0.3468
  113SOL    HW1  380   2.070   5.226   1.586  1.1074  0.2279 -0.8027
  113SOL    HW2  381   2.046   5.114   1.685 -0.9497  1.6487  0.3721
  114SOL     OW  382   5.335   4.320   1.762  0.1630  0.0283  0.3029
  114SOL    HW1  383   5.241   4.339   1.769 -0.0727 -0.3306 -1.4825
  114SOL    HW2  384   5.346   4.239   1.812 -0.1354  0.9328  1.9159
  115SOL     OW  385   4.362   4.404   1.514 -0.0934  0.1692  0.1468
  115SOL    HW1  386   4.404   4.323   1.542 -0.1989 -0.0620 -0.3570
  115SOL    HW2  387   4.346   4.452   1.595 -0.5214 -0.5489  0.4994
  116SOL     OW  388   4.908   5.303   1.391  0.2452  0.9523  0.2657
  116SOL    HW1  389   4.986   5.342   1.352  0.6938  0.4560  0.6497
  116SOL    HW2  390   4.890   5.226   1.337  0.9062  0.2254  1.0400
  117SOL     OW  391   1.345   1.081   0.765 -0.8663 -0.9721  0.2107
  117SOL    HW1  392   1.346   1.176   0.772 -1.0288 -0.9110 -0.5149
  117SOL    HW2  393   1.337   1.064   0.671  2.5594 -1.6978 -0.0800
  118SOL     OW  394   1.398   4.681   0.602  0.0279  0.3268 -0.4558
  118SOL    HW1  395   1.447   4.755   0.567  0.3328  0.0293 -0.6657
  118SOL    HW2  396   1.306   4.704   0.590  0.1228  0.6744 -0.5094
  119SOL     OW  397   4.319   4.458   1.774 -0.5301  0.4340  0.3501
  119SOL    HW1  398   4.363   4.438   1.857  0.6936 -2.4159 -0.8768
  119SOL    HW2  399   4.333   4.552   1.761  2.5037  0.2397  1.5457
  120SOL     OW  400   4.180   0.850   0.648  0.4475 -0.5194 -0.9993
  120SOL    HW1  401   4.226   0.897   0.579  0.4237  0.6481 -0.2480
  120SOL    HW2  402   4.248   0.830   0.712  0.4168 -1.3370 -1.2184
  121SOL     OW  403   5.159   1.063   1.360 -0.1887 -0.5066  0.1198
  121SOL    HW1  404   5.233   1.003   1.352 -1.2607 -1.7834 -0.7570
  121SOL    HW2  405   5.160   1.091   1.451  1.4205 -0.4128  0.0940
  122SOL     OW  406   1.864   5.629   1.905  0.2624 -0.1120  0.0160
  122SOL    HW1  407   1.775   5.653   1.879  0.1214 -1.4109 -0.8049
  122SOL    HW2  408   1.909   5.613   1.822  1.2591  0.5066  0.4277
  123SOL     OW  409   4.635   4.546   0.655  0.3437 -0.3442  0.0815
  123SOL    HW1  410   4.674   4.462   0.678 -2.2942 -1.9820 -0.9606
  123SOL    HW2  411   4.545   4.541   0.686 -0.7830  0.8329 -2.6156
  124SOL     OW  412   1.786   4.506   0.477  0.1233  0.6267  0.2139
  124SOL    HW1  413   1.820   4.587   0.515 -1.1070  1.1321  0.3108
  124SOL    HW2  414   1.859   4.470   0.427  0.4937  2.2127 -0.4701
  125SOL     OW  415   0.831   0.938   1.015 -0.5097  0.1805  0.5378
  125SOL    HW1  416   0.853   0.908   1.103  0.2940 -1.9892 -0.3414
  125SOL    HW2  417   0.735   0.931   1.011 -0.4825 -0.5806  0.9712
  126SOL     OW  418   5.383   1.288   1.666  0.2220 -0.0321 -0.1235
  126SOL    HW1  419   5.422   1.339   1.595  1.6259  0.4115  0.9196
  126SOL    HW2  420   5.444   1.214   1.679  0.5297  0.4310  1.2461
  127SOL     OW  421   1.707   1.633   1.483  0.0078  0.1356  0.4574
  127SOL    HW1  422   1.783   1.685   1.457  1.1908 -0.9566  1.6108
  127SOL    HW2  423   1.736   1.542   1.474 -1.5996 -0.3370 -0.2918
  128SOL     OW  424   5.016   5.095   1.653 -0.1603 -0.1333 -0.0099
  128SOL    HW1  425   4.950   5.152   1.615  1.1575  1.1582 -0.4248
  128SOL    HW2  426   5.068   5.151   1.709  1.5684 -0.7417 -0.9127
  129SOL     OW  427   1.195   0.436   0.262 -0.0411  0.0625 -0.3072
  129SOL    HW1  428   1.109   0.393   0.262 -1.2284  2.2497 -0.6438
  129SOL    HW2  429   1.246   0.387   0.197 -1.0356 -1.2541 -0.1459
  130SOL     OW  430   1.175   0.981   0.172 -0.0214 -0.3670 -0.2976
  130SOL    HW1  431   1.261   0.964   0.210 -0.2269 -1.4142 -0.2934
  130SOL    HW2  432   1.129   0.897   0.175 -1.0053  0.1466 -0.4135
  131SOL     OW  433   0.949   1.427   1.131 -0.2824  0.3711  0.5304
  131SOL    HW1  434   0.969   1.353   1.074  0.3971  0.1912  0.9887
  131SOL    HW2  435   0.860   1.412   1.161 -0.5611  0.3399 -0.2836
  132SOL     OW  436   4.813   4.917   1.429  0.3195  0.3223 -0.3085
  132SOL    HW1  437   4.772   4.833   1.412  0.0463  0.2747  0.5200
  132SOL    HW2  438   4.904   4.896   1.451 -0.2334  0.0142  1.9342
  133SOL     OW  439   4.597   5.070   1.502  0.0804  0.1063 -0.8457
  133SOL    HW1  440   4.549   4.991   1.527  0.0727  0.6136  0.8388
  133SOL    HW2  441   4.687   5.040   1.489  0.1088 -0.1674 -0.0708
  134SOL     OW  442   5.475   4.495   1.557 -0.2833 -0.8450 -0.3759
  134SOL    HW1  443   5.413   4.498   1.484 -1.8111 -0.5928  0.8828
  134SOL    HW2  444   5.432   4.440   1.623  1.0820 -1.1014  0.3312
  135SOL     OW  445   4.887   3.955   1.941  0.4741  0.2875  0.4786
  135SOL    HW1  446   4.916   4.045   1.926  0.2485  0.4471  0.9799
  135SOL    HW2  447   4.968   3.904   1.951  0.5966  0.4740  0.4314
  136SOL     OW  448   0.147   1.112   0.096  0.1317 -0.6333 -0.0440
  136SOL    HW1  449   0.211   1.040   0.100  0.2211 -0.6111 -0.8830
  136SOL    HW2  450   0.074   1.076   0.045  0.9476  0.4329 -2.0491
  137SOL     OW  451   4.184   1.736   0.962  0.4742  0.1848 -0.2543
  137SOL    HW1  452   4.191   1.704   0.872 -1.4911 -0.3397 -0.2779
  137SOL    HW2  453   4.130   1.815   0.955 -0.7554 -0.5526  0.5696
  138SOL     OW  454   4.809   1.577   1.076 -0.0353  0.3665  0.6547
  138SOL    HW1  455   4.773   1.658   1.040  0.8096  0.9404  1.1041
  138SOL    HW2  456   4.746   1.510   1.048  1.0869  0.5558 -2.8893
  139SOL     OW  457   0.967   4.897   1.368  0.1328  0.2140 -0.1697
  139SOL    HW1  458   1.051   4.866   1.402  1.0230  0.1643 -2.2994
  139SOL    HW2  459   0.968   4.873   1.276 -2.0118  0.6972 -0.3661
  140SOL     OW  460   4.260   5.040   1.361 -0.3115  0.2875  0.0423
  140SOL    HW1  461   4.324   4.988   1.312  0.2696  1.3018 -0.3057
  140SOL    HW2  462   4.309   5.117   1.389 -1.1179  0.5703  0.6938
  141SOL     OW  463   4.168   4.869   1.582  0.3770 -0.0788 -0.1788
  141SOL    HW1  464   4.239   4.814   1.614  1.9444  2.4840  1.0695
  141SOL    HW2  465   4.206   4.915   1.507 -1.8507 -2.7047 -3.2156
  142SOL     OW  466   1.547   5.052   1.398  0.4985 -0.4713  0.1350
  142SOL    HW1  467   1.631   5.012   1.421 -0.0629 -0.5568  2.2643
  142SOL    HW2  468   1.497   5.051   1.479 -1.6414 -0.5312 -1.1009
  143SOL     OW  469   0.901   0.712   0.345 -0.1587  0.4803  0.3525
  143SOL    HW1  470   0.916   0.698   0.251 -1.0073  1.3339  0.0643
  143SOL    HW2  471   0.852   0.794   0.349  1.6907  1.5783  1.7066
  144SOL     OW  472   1.241   5.084   1.144 -0.0483 -0.4937  0.0419
  144SOL    HW1  473   1.192   5.007   1.115  0.2254 -0.2494 -1.1280
  144SOL    HW2  474   1.285   5.115   1.065  0.5484  0.3495  0.6899
  145SOL     OW  475   4.623   1.831   2.045 -0.0039 -0.1015  0.0867
  145SOL    HW1  476   4.581   1.781   1.976 -2.1517  0.1275  1.1670
  145SOL    HW2  477   4.664   1.905   1.999  0.1290 -0.8909 -1.1138
  146SOL     OW  478   4.712   4.689   1.330  0.8888 -0.0484  0.1134
  146SOL    HW1  479   4.764   4.617   1.366 -0.2102 -0.2158  1.4434
  146SOL    HW2  480   4.707   4.671   1.236 -0.0878 -2.2049  0.5310
  147SOL     OW  481   5.158   1.591   1.417 -0.2597 -0.0991  0.2739
  147SOL    HW1  482   5.116   1.509   1.443 -1.5325  0.9039  1.5197
  147SOL    HW2  483   5.250   1.581   1.445 -0.7074 -0.5924  1.6778
  148SOL     OW  484   4.213   5.533   1.886  0.2957 -0.2857  0.2023
  148SOL    HW1  485   4.204   5.476   1.963  0.0636 -1.3758 -0.6050
  148SOL    HW2  486   4.198   5.622   1.920  0.5017 -0.7106  1.4616
  149SOL     OW  487   1.464   1.129   1.134 -0.1065  0.0026 -0.0063
  149SOL    HW1  488   1.385   1.106   1.183  0.9292  0.4469  1.9584
  149SOL    HW2  489   1.442   1.210   1.089 -1.2867 -0.7521 -0.8800
  150SOL     OW  490   1.319   0.942   0.526 -0.6892  0.6856 -0.0641
  150SOL    HW1  491   1.227   0.919   0.513 -0.6355  0.9840 -1.0188
  150SOL    HW2  492   1.353   0.871   0.581 -1.1530 -0.1717 -0.8503
  151SOL     OW  493   1.616   1.974   0.993 -0.4038  0.0452 -0.7534
  151SOL    HW1  494   1.589   2.051   0.942 -0.6741  0.1668 -0.4359
  151SOL    HW2  495   1.670   1.923   0.934  0.3307  0.8142 -0.7631
  152SOL     OW  496   0.947   1.628   0.958  0.2140  0.1755  0.3127
  152SOL    HW1  497   0.944   1.539   0.992 -1.2939  0.5183  1.1673
  152SOL    HW2  498   0.921   1.683   1.032 -0.7063  1.1656 -0.7019
  153SOL     OW  499   4.500   1.797   0.682 -0.4779  0.5315  0.4918
  153SOL    HW1  500   4.500   1.859   0.755 -1.1933  3.5195 -1.8457
  153SOL    HW2  501   4.410   1.799   0.649  0.1488  0.3985 -1.3257
  154SOL     OW  502   5.206   1.319   1.867 -0.2179 -0.5510 -0.5639
  154SOL    HW1  503   5.178   1.410   1.877 -3.1084 -1.3794 -0.1955
  154SOL    HW2  504   5.286   1.324   1.816  1.2774  2.3455  1.7696
  155SOL     OW  505   0.748   4.300   0.191  0.0754  0.6504 -0.1416
  155SOL    HW1  506   0.752   4.355   0.113  2.5755  0.2965 -0.3440
  155SOL    HW2  507   0.717   4.215   0.159 -2.3082  1.4346 -0.0855
  156SOL     OW  508   1.654   4.350   0.680  0.3268  0.1441  0.7365
  156SOL    HW1  509   1.740   4.309   0.695  0.6060  0.4446  0.0173
  156SOL    HW2  510   1.670   4.412   0.609 -0.1002  1.4743  1.7586
  157SOL     OW  511   1.134   1.907   0.189 -0.0664  0.1339 -0.1861
  157SOL    HW1  512   1.224   1.929   0.164  0.0800  1.0539  1.0131
  157SOL    HW2  513   1.109   1.836   0.131  1.6373 -0.5236 -0.1637
  158SOL     OW  514   4.267   1.621   1.934  0.0826 -0.0980  0.0051
  158SOL    HW1  515   4.355   1.631   1.899  0.1127  0.2416  0.1695
  158SOL    HW2  516   4.268   1.671   2.016 -1.0137  2.2046 -1.2901
  159SOL     OW  517   1.244   1.371   0.826  0.3396  0.2157  0.2751
  159SOL    HW1  518   1.162   1.352   0.781 -0.0036 -1.8186  1.6041
  159SOL    HW2  519   1.218   1.398   0.914  1.0733  1.1429  0.2265
  160SOL     OW  520   5.079   5.414   1.870 -0.2215  0.0965 -0.1726
  160SOL    HW1  521   5.091   5.350   1.940 -1.9389  0.4242  0.4857
  160SOL    HW2  522   5.119   5.494   1.904 -2.2104  0.6329  1.0916
  161SOL     OW  523   2.714   3.626   2.643  0.3272 -0.6415  0.0051
  161SOL    HW1  524   2.769   3.604   2.567 -0.3527 -1.7316 -0.2037
  161SOL    HW2  525   2.651   3.689   2.609  2.1757  1.6323  0.5543
  162SOL     OW  526   2.045   1.970   1.138  0.0943 -0.6106 -0.1141
  162SOL    HW1  527   2.095   2.049   1.120 -1.2631  0.2868 -0.0609
  162SOL    HW2  528   2.101   1.920   1.197  1.5234 -0.3097 -1.1530
  163SOL     OW  529   1.907   4.533   0.866 -0.1146 -0.5213 -0.0532
  163SOL    HW1  530   1.925   4.561   0.956 -1.7847  2.4702 -0.4908
  163SOL    HW2  531   1.991   4.543   0.821  0.0091  1.2703  0.4954
  164SOL     OW  532   4.366   0.801   0.852  0.5981 -0.3315 -0.3442
  164SOL    HW1  533   4.452   0.786   0.813  0.7293  1.0600 -0.6521
  164SOL    HW2  534   4.385   0.822   0.944  0.4190 -1.8755  0.0767
  165SOL     OW  535   3.179   3.919   3.040 -0.2029  0.2721 -0.0877
  165SOL    HW1  536   3.160   3.832   3.006  0.1191  0.3811 -0.5613
  165SOL    HW2  537   3.105   3.973   3.011 -0.4169  0.1576  0.2306
  166SOL     OW  538   4.840   1.369   1.686 -0.0226  0.9340  0.2752
  166SOL    HW1  539   4.867   1.438   1.746  1.2353  1.3557 -0.7178
  166SOL    HW2  540   4.802   1.301   1.742  1.3822  1.1759  1.5826
  167SOL     OW  541   1.079   0.825   0.536  0.5610 -0.3746 -0.0753
  167SOL    HW1  542   1.040   0.831   0.623  1.7331 -1.6717  0.5674
  167SOL    HW2  543   1.011   0.786   0.482  0.6607 -1.9704  0.8711
  168SOL     OW  544   3.455   3.592   2.828 -0.6250 -0.9067  0.7637
  168SOL    HW1  545   3.426   3.624   2.742  0.5252 -0.0488  0.6678
  168SOL    HW2  546   3.394   3.521   2.849 -1.6306 -0.3649 -0.2295
  169SOL     OW  547   4.178   5.485   1.639 -0.0261 -0.1766  0.0090
  169SOL    HW1  548   4.184   5.514   1.730  1.7542  1.0272 -0.4349
  169SOL    HW2  549   4.130   5.555   1.595  0.0420 -0.2490 -0.1804
  170SOL     OW  550   1.765   1.290   1.170  0.0119  0.1053 -0.1603
  170SOL    HW1  551   1.830   1.334   1.116  0.7883  1.1723  1.5517
  170SOL    HW2  552   1.681   1.321   1.136  0.5158  2.0702  0.2640
  171SOL     OW  553   0.973   1.204   0.969  0.5726  0.4588 -0.1073
  171SOL    HW1  554   0.936   1.116   0.978 -0.7534  1.0054 -0.0268
  171SOL    HW2  555   0.970   1.222   0.876 -1.6051  1.4083  0.1035
  172SOL     OW  556   5.111   4.507   1.182  0.1633  0.4874  0.0961
  172SOL    HW1  557   5.027   4.550   1.164  0.0486  0.3562  0.3113
  172SOL    HW2  558   5.144   4.482   1.096 -0.0329  0.5095  0.0132
  173SOL     OW  559   0.519   1.464   0.650  0.2264  0.7273 -0.2369
  173SOL    HW1  560   0.592   1.428   0.701 -1.2275 -0.3909  1.1542
  173SOL    HW2  561   0.497   1.396   0.587 -0.3323  0.5947  0.0981
  174SOL     OW  562   1.610   4.713   1.391 -0.5224 -0.6339 -0.3437
  174SOL    HW1  563   1.701   4.687   1.377  0.0536  0.8107  0.4728
  174SOL    HW2  564   1.566   4.694   1.308  0.7997 -0.2385 -1.1617
  175SOL     OW  565   2.708   3.356   2.978 -0.2169  0.1791  0.2992
  175SOL    HW1  566   2.630   3.396   3.017 -0.5116  0.3275 -0.4425
  175SOL    HW2  567   2.676   3.314   2.898  0.3869 -0.1465  0.2233
  176SOL     OW  568   4.769   4.988   1.799  0.1493 -0.1224 -0.3477
  176SOL    HW1  569   4.785   5.026   1.886  0.5732 -0.4234 -0.2916
  176SOL    HW2  570   4.847   5.011   1.748  0.5090 -1.0764 -0.2540
  177SOL     OW  571   5.045   4.327   1.782 -0.0785 -0.1657  0.0188
  177SOL    HW1  572   5.016   4.316   1.692 -3.2435 -0.3237  0.9184
  177SOL    HW2  573   5.013   4.414   1.807 -0.7593 -0.7702  1.4031
  178SOL     OW  574   2.106   2.727   2.791 -0.0920 -0.2034  0.8823
  178SOL    HW1  575   2.131   2.658   2.852  1.3883 -2.0440 -1.6559
  178SOL    HW2  576   2.185   2.778   2.778 -0.4218  0.2407  0.5832
  179SOL     OW  577   1.644   0.881   1.190  0.1366 -0.3752 -0.1300
  179SOL    HW1  578   1.589   0.823   1.243 -0.0210 -1.2060 -1.1728
  179SOL    HW2  579   1.702   0.822   1.142  0.0331  0.3202 -1.1514
  180SOL     OW  580   4.485   4.549   0.391  0.1423  0.2473  0.5824
  180SOL    HW1  581   4.508   4.617   0.328  0.0130  0.5902  0.9027
  180SOL    HW2  582   4.528   4.576   0.472  0.0547 -0.0303  0.7235
  181SOL     OW  583   0.993   1.299   0.696  0.1201 -0.1194  0.0741
  181SOL    HW1  584   0.904   1.324   0.722  0.8026  1.2939  1.2283
  181SOL    HW2  585   0.982   1.258   0.610 -1.7353 -0.8179  0.5834
  182SOL     OW  586   0.926   5.131   1.253  0.5164  0.0523 -0.0627
  182SOL    HW1  587   1.015   5.132   1.216  0.1182 -1.1534 -1.1049
  182SOL    HW2  588   0.916   5.044   1.290 -0.7480 -0.3491 -1.2823
  183SOL     OW  589   1.129   1.611   1.432 -0.3231 -0.0711 -0.4933
  183SOL    HW1  590   1.152   1.702   1.413  1.9798 -0.6313 -0.6449
  183SOL    HW2  591   1.137   1.604   1.528  0.3001 -0.2798 -0.5519
  184SOL     OW  592   4.852   4.613   2.039  0.2298  0.0425  0.6613
  184SOL    HW1  593   4.927   4.620   1.980  0.2792 -1.8972  0.4283
  184SOL    HW2  594   4.782   4.659   1.994  0.8445  0.4754  0.1187
  185SOL     OW  595   1.755   4.972   1.559 -0.2081 -0.5722 -0.2482
  185SOL    HW1  596   1.809   4.925   1.495 -0.8402 -0.7385 -0.6696
  185SOL    HW2  597   1.805   4.967   1.640  1.5874  1.3539 -1.1274
  186SOL     OW  598   4.513   1.937   1.461 -0.0853  0.0242 -0.0616
  186SOL    HW1  599   4.592   1.912   1.412  1.4532  2.6600  0.8716
  186SOL    HW2  600   4.456   1.861   1.454  1.7815 -1.3188 -2.3270
  187SOL     OW  601   0.963   0.326   0.256  0.5498  0.0613 -0.1404
  187SOL    HW1  602   0.912   0.405   0.237  1.2014  0.3057 -0.9381
  187SOL    HW2  603   0.906   0.273   0.311 -1.1738 -0.3476 -2.2025
  188SOL     OW  604   0.859   0.477   0.469 -0.5356  0.1385  0.5689
  188SOL    HW1  605   0.885   0.550   0.413 -0.2358 -0.5470 -0.2009
  188SOL    HW2  606   0.779   0.507   0.512 -0.5899  0.7962  0.0205
  189SOL     OW  607   1.940   5.331   1.511 -0.3310 -0.6883 -0.7631
  189SOL    HW1  608   1.990   5.406   1.543 -1.6592 -0.1654  0.1623
  189SOL    HW2  609   1.920   5.352   1.420  0.3862 -0.5083 -0.8842
  190SOL     OW  610   1.154   1.441   0.401 -0.0043 -0.1701  0.3520
  190SOL    HW1  611   1.199   1.379   0.343  0.5166  1.8852 -1.5823
  190SOL    HW2  612   1.061   1.419   0.393 -0.1595  1.1146 -2.7846
  191SOL     OW  613   4.713   1.807   0.973  0.2536 -0.3730 -0.2784
  191SOL    HW1  614   4.688   1.899   0.977 -0.0784 -0.4841  0.4091
  191SOL    HW2  615   4.768   1.800   0.895 -2.1215 -0.1908 -2.0807
  192SOL     OW  616   1.182   1.110   1.166 -0.1558  0.1523  0.0309
  192SOL    HW1  617   1.166   1.117   1.072  1.4797  0.7949 -0.2463
  192SOL    HW2  618   1.136   1.184   1.204 -1.0660 -0.2751 -0.2174
  193SOL     OW  619   0.909   1.068   0.197 -0.1277  0.2012 -0.0147
  193SOL    HW1  620   0.876   1.118   0.122  0.2377  1.5911  0.7176
  193SOL    HW2  621   1.002   1.056   0.179  0.1384  1.2502  0.5675
  194SOL     OW  622   1.513   1.813   0.650 -0.7504  0.1374 -0.0125
  194SOL    HW1  623   1.491   1.723   0.677  0.6249 -0.4157 -0.6604
  194SOL    HW2  624   1.430   1.849   0.618 -1.1813 -1.1306 -0.3846
  195SOL     OW  625   4.551   5.612   1.996 -0.1568 -0.5584 -0.3134
  195SOL    HW1  626   4.486   5.604   2.067  0.1142  1.4878  0.2033
  195SOL    HW2  627   4.500   5.639   1.920 -0.0486  0.1501 -0.1386
  196SOL     OW  628   4.508   1.279   0.683 -0.5983 -0.2480 -0.4149
  196SOL    HW1  629   4.414   1.299   0.686 -0.2796  1.6622 -1.4402
  196SOL    HW2  630   4.551   1.363   0.699  0.9092 -0.4820 -2.7032
  197SOL     OW  631   5.140   1.179   1.610 -0.4214 -0.1465  0.4333
  197SOL    HW1  632   5.107   1.154   1.696 -0.4106  1.1385  0.8317
  197SOL    HW2  633   5.219   1.229   1.628  0.2926 -0.9353 -0.3938
  198SOL     OW  634   1.883   4.374   1.430  0.6288  0.1236 -0.3840
  198SOL    HW1  635   1.921   4.461   1.440  1.7638 -0.3298 -0.5813
  198SOL    HW2  636   1.860   4.368   1.338  1.8547 -0.2750 -0.6850
  199SOL     OW  637   4.693   0.541   0.673  0.0836  0.4897  0.0086
  199SOL    HW1  638   4.670   0.450   0.691  0.4134  0.2203 -0.8613
  199SOL    HW2  639   4.635   0.567   0.601 -0.1052  1.0095  0.3459
  200SOL     OW  640   1.760   1.806   0.802 -0.0598 -0.1162  0.1547
  200SOL    HW1  641   1.699   1.810   0.727 -1.0003  0.5697  0.9312
  200SOL    HW2  642   1.841   1.771   0.765 -0.1256  1.3159 -1.4449
  201SOL     OW  643   1.228   5.259   1.385 -0.1327 -0.0967 -0.0292
  201SOL    HW1  644   1.243   5.189   1.321 -0.7685 -0.6745  0.4355
  201SOL    HW2  645   1.181   5.326   1.337 -0.3786 -0.4145 -0.2371
  202SOL     OW  646   0.671   1.722   0.381  0.2638  0.3918  0.5565
  202SOL    HW1  647   0.757   1.756   0.359 -0.3164  0.2942 -2.1783
  202SOL    HW2  648   0.671   1.716   0.477  3.4454 -0.1394  0.6072
  203SOL     OW  649   1.563   4.761   1.000 -0.2597  0.5410 -0.5764
  203SOL    HW1  650   1.569   4.837   1.059 -2.8710 -0.0325  0.5519
  203SOL    HW2  651   1.520   4.694   1.052  1.4115 -1.5819 -1.7709
  204SOL     OW  652   5.152   4.000   1.302 -0.6392 -0.0570 -0.2707
  204SOL    HW1  653   5.081   3.954   1.257 -0.6489 -0.5709  0.2571
  204SOL    HW2  654   5.115   4.085   1.325 -0.9211 -0.1315 -0.4455
  205SOL     OW  655   0.702   1.338   0.865 -0.3215  0.1243  0.2860
  205SOL    HW1  656   0.695   1.243   0.868 -1.3152  0.1395 -0.6390
  205SOL    HW2  657   0.681   1.367   0.953 -0.7879 -0.4897  0.3839
  206SOL     OW  658   4.552   5.381   1.767  0.1273  0.0505 -0.1472
  206SOL    HW1  659   4.630   5.361   1.715 -0.0929  1.9512 -1.2959
  206SOL    HW2  660   4.578   5.456   1.820 -0.6905  0.2122  0.0220
  207SOL     OW  661   1.281   4.239   0.336 -0.3043 -0.0440  0.1238
  207SOL    HW1  662   1.221   4.309   0.360  1.6103  1.5470  0.5390
  207SOL    HW2  663   1.285   4.242   0.240 -0.0966  0.5377  0.1507
  208SOL     OW  664   1.150   4.392   0.893  0.1001 -0.1292  0.2786
  208SOL    HW1  665   1.136   4.340   0.813 -0.5656 -0.0816  0.3603
  208SOL    HW2  666   1.069   4.381   0.943  0.3731  0.1398  0.7829
  209SOL     OW  667   1.773   4.755   0.796  0.4448  0.0366 -0.3914
  209SOL    HW1  668   1.692   4.762   0.847  0.7877  0.7366  0.0724
  209SOL    HW2  669   1.802   4.665   0.810 -0.3786 -0.2948 -0.7602
  210SOL     OW  670   4.542   1.136   0.371  0.2173  0.0143  0.1997
  210SOL    HW1  671   4.501   1.101   0.293  0.6587  0.0935 -0.0708
  210SOL    HW2  672   4.486   1.209   0.397 -0.1336 -0.2458  0.1703
  211SOL     OW  673   0.783   2.190   0.553  0.0327 -0.1521  0.3932
  211SOL    HW1  674   0.722   2.231   0.613  1.5745  2.0335  0.5701
  211SOL    HW2  675   0.787   2.250   0.478  0.4013 -1.3238 -0.5648
  212SOL     OW  676   4.585   5.287   2.078 -0.0475  0.2992 -0.4531
  212SOL    HW1  677   4.568   5.315   1.988 -0.9730  4.1971  0.7730
  212SOL    HW2  678   4.506   5.312   2.127  1.8639  1.8356  2.0872
  213SOL     OW  679   4.387   4.400   2.920 -0.3769  0.4674 -0.0424
  213SOL    HW1  680   4.399   4.313   2.957 -2.4844 -0.3760 -1.1713
  213SOL    HW2  681   4.340   4.449   2.987  0.1729  0.5247  0.3065
  214SOL     OW  682   3.907   4.867   2.822  0.2142 -0.2685 -0.1831
  214SOL    HW1  683   3.813   4.882   2.826  0.2324 -0.0483 -0.5830
  214SOL    HW2  684   3.932   4.852   2.914 -0.1855 -0.1998 -0.0597
  215SOL     OW  685   4.635   5.334   2.839 -0.2120  0.2206 -0.2313
  215SOL    HW1  686   4.626   5.363   2.748 -0.4906  0.2318 -0.2003
  215SOL    HW2  687   4.723   5.364   2.864  0.0075 -0.0981 -0.6067
  216SOL     OW  688   5.819   5.788   2.115 -0.2642  0.7409 -0.4437
  216SOL    HW1  689   5.784   5.850   2.179  1.3903  1.1974  0.0461
  216SOL    HW2  690   5.767   5.805   2.035 -1.6459  0.8690  0.4406
  217SOL     OW  691   5.697   5.234   2.466 -0.1678  0.0548 -0.1217
  217SOL    HW1  692   5.760   5.168   2.436 -0.5800 -1.4431  2.1213
  217SOL    HW2  693   5.736   5.317   2.439  1.7073 -0.9425 -0.6943
  218SOL     OW  694   2.375   5.241   1.638  0.3508  0.0225 -0.0601
  218SOL    HW1  695   2.424   5.181   1.694 -0.3377 -0.4070  0.0988
  218SOL    HW2  696   2.301   5.189   1.607 -0.3626  0.8479  0.2306
  219SOL     OW  697   3.272   3.352   0.183  0.5434  0.0121  0.1141
  219SOL    HW1  698   3.266   3.447   0.197  1.9875 -0.0160  1.0896
  219SOL    HW2  699   3.319   3.319   0.260 -0.7005 -1.6286  0.2068
  220SOL     OW  700   5.431   5.264   2.425  0.1423 -0.2644  0.0959
  220SOL    HW1  701   5.518   5.229   2.440  0.0889  0.2100  1.8320
  220SOL    HW2  702   5.407   5.234   2.338  2.2525  0.0584 -0.6571
  221SOL     OW  703   5.056   5.220   2.694  0.1927  0.3526  0.2104
  221SOL    HW1  704   4.978   5.232   2.639 -1.3396 -0.5564  2.0549
  221SOL    HW2  705   5.116   5.289   2.667  0.0668 -0.7158 -3.3865
  222SOL     OW  706   3.790   3.557   0.033 -0.1132  0.1416  0.0295
  222SOL    HW1  707   3.853   3.616  -0.009 -1.3766  1.2267 -0.4345
  222SOL    HW2  708   3.838   3.518   0.106  1.2765  0.4247 -0.7066
  223SOL     OW  709   5.727   4.249   2.477 -0.1535  0.0543 -0.2278
  223SOL    HW1  710   5.715   4.191   2.402 -1.6199  1.9737 -1.5619
  223SOL    HW2  711   5.656   4.312   2.471 -0.7877 -0.1235  3.2498
  224SOL     OW  712   4.414   1.838   2.315 -0.7519 -0.4270  0.3892
  224SOL    HW1  713   4.411   1.920   2.365 -0.8866 -0.3093  0.1900
  224SOL    HW2  714   4.508   1.819   2.307 -0.7479 -1.4739  2.3459
  225SOL     OW  715   4.987   5.941   2.911  0.0578 -0.3494 -0.0603
  225SOL    HW1  716   5.010   5.940   2.818 -1.1833 -1.2810 -0.3856
  225SOL    HW2  717   4.928   6.016   2.920 -0.8509 -1.0125 -0.3171
  226SOL     OW  718   4.354   5.518   2.632  0.2371  0.0119 -0.4236
  226SOL    HW1  719   4.353   5.455   2.704 -1.2126 -0.1815 -0.5821
  226SOL    HW2  720   4.345   5.603   2.674  0.7094  0.0042 -0.3030
  227SOL     OW  721   4.633   6.129   3.087 -0.0323  0.4214 -0.1165
  227SOL    HW1  722   4.619   6.066   3.158 -1.8214  0.0564 -0.7286
  227SOL    HW2  723   4.645   6.213   3.131  3.7649 -0.4150  0.7832
  228SOL     OW  724   4.857   5.293   2.271  0.4459  0.4652 -0.1453
  228SOL    HW1  725   4.857   5.252   2.358 -0.4019 -0.6724 -0.6366
  228SOL    HW2  726   4.770   5.332   2.263  0.9332  1.5945 -0.0411
  229SOL     OW  727   3.804   2.379   0.268 -0.0740  0.2256  0.0280
  229SOL    HW1  728   3.746   2.414   0.200 -0.6903 -2.6313 -1.0668
  229SOL    HW2  729   3.892   2.400   0.237 -0.3975  0.6801 -0.6255
  230SOL     OW  730   4.380   4.915   2.720  0.0926 -0.2789  0.1157
  230SOL    HW1  731   4.306   4.865   2.756  0.3534 -1.8583 -1.4365
  230SOL    HW2  732   4.456   4.884   2.770 -0.1731  1.1349  1.5086
  231SOL     OW  733   2.201   1.985   2.210 -0.2914 -0.0794  0.3563
  231SOL    HW1  734   2.131   2.048   2.228  0.4040  0.5693  0.8378
  231SOL    HW2  735   2.162   1.923   2.148 -1.3630  0.1353  0.7949
  232SOL     OW  736   4.269   5.622   2.164 -0.6924 -0.4102 -0.4757
  232SOL    HW1  737   4.175   5.640   2.159 -0.2317  2.0792 -2.3083
  232SOL    HW2  738   4.300   5.677   2.236 -0.5938 -1.0660 -0.0116
  233SOL     OW  739   5.904   5.030   2.435 -0.2170 -0.6597 -0.2386
  233SOL    HW1  740   5.915   5.079   2.516 -1.7278  0.9127 -0.9147
  233SOL    HW2  741   5.976   5.060   2.380 -0.4092 -0.1126 -0.2028
  234SOL     OW  742   1.797   5.284   2.279  0.1235  0.0326  0.2826
  234SOL    HW1  743   1.871   5.344   2.281 -1.1849  1.7702 -0.4371
  234SOL    HW2  744   1.736   5.319   2.344  0.0455 -1.5787  1.1330
  235SOL     OW  745   5.231   5.644   2.779  0.9624  0.0312 -0.2135
  235SOL    HW1  746   5.298   5.664   2.714  0.4040  0.2617 -0.7360
  235SOL    HW2  747   5.223   5.549   2.777  0.2597  0.0940 -1.2101
  236SOL     OW  748   3.983   3.442   0.196  0.2262 -0.5583  0.6851
  236SOL    HW1  749   4.013   3.528   0.226  0.0096 -0.4202  0.5070
  236SOL    HW2  750   4.061   3.400   0.161  0.2467 -0.2713  0.3912
  237SOL     OW  751   5.180   4.741   2.402 -0.3073  0.0334 -0.0828
  237SOL    HW1  752   5.242   4.732   2.329  0.8650  0.1064  0.8708
  237SOL    HW2  753   5.096   4.715   2.365  0.5293 -1.4381 -1.0649
  238SOL     OW  754   4.442   5.434   3.049  0.3240  0.0574  0.5450
  238SOL    HW1  755   4.511   5.384   3.005 -0.0025  0.3011 -0.2614
  238SOL    HW2  756   4.419   5.503   2.987 -1.1862 -0.4893  0.4519
  239SOL     OW  757   1.600   5.652   1.881 -0.5092  0.1836 -0.0835
  239SOL    HW1  758   1.570   5.681   1.967  0.2793 -2.1527  1.0745
  239SOL    HW2  759   1.528   5.599   1.846 -0.5368  0.5135 -0.5453
  240SOL     OW  760   6.000   6.000   2.764 -0.0693  0.3351 -0.3600
  240SOL    HW1  761   5.985   6.094   2.764 -2.6586  0.0114 -0.3758
  240SOL    HW2  762   6.055   5.984   2.688 -0.5009  1.7412 -1.0006
  241SOL     OW  763   6.204   1.995   2.824 -0.0385 -0.4677  0.2716
  241SOL    HW1  764   6.141   2.045   2.876  0.9805  0.3542  0.7534
  241SOL    HW2  765   6.243   1.933   2.886 -0.6926 -1.3235 -0.1365
  242SOL     OW  766   4.829   5.080   2.059  0.2353  0.1326 -0.2632
  242SOL    HW1  767   4.744   5.110   2.091  0.5162  1.6284 -0.8256
  242SOL    HW2  768   4.890   5.151   2.079  1.3841 -0.9306  0.1725
  243SOL     OW  769   5.309   4.950   2.869 -0.3381  0.2872 -0.0097
  243SOL    HW1  770   5.321   5.038   2.834 -0.4582 -0.3030 -1.5998
  243SOL    HW2  771   5.397   4.913   2.874 -0.3582  0.2332 -0.0578
  244SOL     OW  772   1.717   1.649   1.844 -0.7183  0.2882  0.1600
  244SOL    HW1  773   1.786   1.681   1.786  0.2170 -0.3949  0.8622
  244SOL    HW2  774   1.690   1.566   1.805 -1.4063  0.7209 -0.3054
  245SOL     OW  775   2.766   3.088   0.338 -0.4825  0.0358  0.0732
  245SOL    HW1  776   2.710   3.108   0.412 -2.1798 -0.2587 -1.0609
  245SOL    HW2  777   2.802   3.001   0.358  1.2729  1.0782  1.7454
  246SOL     OW  778   3.112   3.010   0.222 -0.1582 -0.4425 -0.0308
  246SOL    HW1  779   3.062   3.091   0.210  0.4592  0.2077  1.5867
  246SOL    HW2  780   3.076   2.951   0.156 -1.1772  0.8737 -0.7240
  247SOL     OW  781   5.421   4.851   2.245  0.7374  0.1058 -0.4915
  247SOL    HW1  782   5.460   4.776   2.199  0.4744 -0.2083 -0.2134
  247SOL    HW2  783   5.463   4.850   2.331  1.7523  1.1192 -0.9420
  248SOL     OW  784   4.304   5.241   2.758 -0.5422  0.0604  0.4263
  248SOL    HW1  785   4.241   5.187   2.805 -0.3511  0.2295  0.8795
  248SOL    HW2  786   4.387   5.226   2.803 -0.2300 -0.2658 -0.2530
  249SOL     OW  787   4.926   4.630   2.296 -0.0143  0.5322 -0.5132
  249SOL    HW1  788   4.842   4.656   2.332  0.4701  1.1789  0.1826
  249SOL    HW2  789   4.918   4.644   2.202 -0.3658  1.5303 -0.3452
  250SOL     OW  790   5.807   5.386   2.164 -0.5718  0.3462  0.3563
  250SOL    HW1  791   5.874   5.321   2.143 -1.1215 -0.2768  0.5228
  250SOL    HW2  792   5.835   5.423   2.248 -0.2527  0.3314  0.2566
  251SOL     OW  793   4.727   4.479   2.911 -0.0133 -0.5109 -0.3726
  251SOL    HW1  794   4.638   4.452   2.933 -0.3215 -1.0523 -2.1207
  251SOL    HW2  795   4.759   4.524   2.990 -1.7590 -0.4441  0.3389
  252SOL     OW  796   5.506   5.548   2.361  0.5358 -0.4777  0.9359
  252SOL    HW1  797   5.425   5.546   2.310  1.8375 -1.6650 -1.2699
  252SOL    HW2  798   5.508   5.463   2.406  2.1823 -2.1748 -1.9998
  253SOL     OW  799   4.602   6.181   2.792 -0.3660 -0.3380  0.4684
  253SOL    HW1  800   4.513   6.204   2.765  0.4540  2.6247 -0.0836
  253SOL    HW2  801   4.603   6.194   2.887 -0.1009  1.4465  0.2471
  254SOL     OW  802   1.971   5.445   2.645  0.4677  0.3178 -0.3367
  254SOL    HW1  803   2.047   5.455   2.586  1.7206 -1.1328  0.9500
  254SOL    HW2  804   1.895   5.444   2.587  1.6358 -0.8145 -1.9292
  255SOL     OW  805   3.386   3.785   0.084  0.0807  0.7975 -0.1177
  255SOL    HW1  806   3.447   3.780   0.010 -0.7975  1.1441 -0.8919
  255SOL    HW2  807   3.361   3.694   0.100  0.0967  0.7397 -0.4096
  256SOL     OW  808   4.575   5.366   2.495 -0.1457  0.1167 -0.2661
  256SOL    HW1  809   4.494   5.413   2.517 -0.2617  0.0611 -0.5663
  256SOL    HW2  810   4.645   5.427   2.518 -0.1069 -0.8287  2.6066
  257SOL     OW  811   5.955   5.133   2.695 -0.0773  0.2195 -0.3309
  257SOL    HW1  812   5.957   5.085   2.778  2.1149  0.5235 -0.1432
  257SOL    HW2  813   5.998   5.216   2.715 -0.5519  0.7629 -1.5083
  258SOL     OW  814   5.377   1.715   2.264  0.2631  0.1280 -0.1696
  258SOL    HW1  815   5.338   1.768   2.333  0.7262  0.0879  0.1284
  258SOL    HW2  816   5.304   1.666   2.226  0.0583 -0.1063  0.5181
  259SOL     OW  817   1.375   5.254   1.837 -0.0302 -0.5485  0.5692
  259SOL    HW1  818   1.405   5.252   1.928  1.5593  2.9109  0.2405
  259SOL    HW2  819   1.444   5.299   1.789 -2.0992  0.2935 -1.8312
  260SOL     OW  820   4.836   1.599   1.865 -0.2473 -0.9703 -0.0250
  260SOL    HW1  821   4.847   1.571   1.956 -0.2331 -0.8992 -0.0046
  260SOL    HW2  822   4.802   1.688   1.871 -4.3288 -2.3610 -0.0628
  261SOL     OW  823   1.605   4.259   2.109 -0.5730 -0.1301  0.4766
  261SOL    HW1  824   1.583   4.202   2.035 -1.1590 -0.3201  0.7900
  261SOL    HW2  825   1.679   4.216   2.152 -0.8036 -0.4869  0.5179
  262SOL     OW  826   4.437   5.940   2.956 -0.0541  0.4039  0.1517
  262SOL    HW1  827   4.480   6.015   2.998  1.1164 -0.5424  0.7047
  262SOL    HW2  828   4.457   5.950   2.863 -1.8049  1.9673 -0.0982
  263SOL     OW  829   5.435   6.008   2.832  0.5975  0.3958  0.3029
  263SOL    HW1  830   5.375   5.955   2.886  0.8066 -0.5119 -0.3251
  263SOL    HW2  831   5.469   5.946   2.768  1.8620  1.0092  0.3625
  264SOL     OW  832   4.695   4.536   2.619  0.2663 -0.6626  0.0337
  264SOL    HW1  833   4.745   4.489   2.686  1.0583 -1.2004 -0.8915
  264SOL    HW2  834   4.620   4.572   2.665  1.6810  0.4712  1.5624
  265SOL     OW  835   5.237   4.397   2.283  0.1448 -0.0000 -0.2939
  265SOL    HW1  836   5.176   4.390   2.210 -0.9920  0.6087  0.5574
  265SOL    HW2  837   5.188   4.362   2.358  1.7178 -1.7849 -0.0377
  266SOL     OW  838   5.336   5.771   3.011 -0.4757 -0.2158 -0.0733
  266SOL    HW1  839   5.296   5.716   2.943 -0.5572  0.0119 -0.2110
  266SOL    HW2  840   5.430   5.755   3.002 -0.4633  0.0458 -0.4453
  267SOL     OW  841   3.603   2.742   0.413 -0.2367  0.0761 -0.6028
  267SOL    HW1  842   3.659   2.679   0.459  1.1215  0.5386 -1.5595
  267SOL    HW2  843   3.660   2.782   0.347 -1.3789  1.4465 -0.8269
  268SOL     OW  844   5.709   5.421   3.050  0.5273 -0.1344  0.2415
  268SOL    HW1  845   5.665   5.471   3.118  0.7698  0.8385 -0.2966
  268SOL    HW2  846   5.763   5.359   3.097 -0.6428 -0.6668  0.9143
  269SOL     OW  847   5.296   4.649   2.889 -0.8279  0.1769 -0.0827
  269SOL    HW1  848   5.273   4.742   2.891  0.4842  0.6196 -2.3930
  269SOL    HW2  849   5.280   4.621   2.799  1.2373 -1.1426 -0.1292
  270SOL     OW  850   4.971   4.337   2.377 -0.5396  0.7832  0.1903
  270SOL    HW1  851   4.892   4.317   2.326 -0.7936  1.5831  0.2610
  270SOL    HW2  852   4.978   4.432   2.375  0.0146  0.7651  0.8140
  271SOL     OW  853   1.327   4.929   1.881 -0.3713 -0.5636  0.0875
  271SOL    HW1  854   1.317   4.939   1.975 -2.4306 -1.8542  0.0637
  271SOL    HW2  855   1.288   5.008   1.844  0.8894  0.1781  0.2975
  272SOL     OW  856   4.695   4.756   2.415 -0.0054  0.2711  0.6267
  272SOL    HW1  857   4.602   4.776   2.409 -0.2149 -0.4767  1.1247
  272SOL    HW2  858   4.702   4.701   2.493  0.7407 -0.3054  0.1665
  273SOL     OW  859   5.389   4.147   2.123  0.5279 -0.6106  0.5332
  273SOL    HW1  860   5.460   4.131   2.185  1.9216  0.7531 -0.6293
  273SOL    HW2  861   5.334   4.213   2.165  2.0514  1.1079 -0.0325
  274SOL     OW  862   3.074   2.821   0.759  0.3334  0.5396  0.3384
  274SOL    HW1  863   3.134   2.792   0.691 -1.1377  0.6249 -1.0353
  274SOL    HW2  864   2.999   2.856   0.712  0.2232  2.7004  1.9735
  275SOL     OW  865   5.700   5.751   2.434  0.1399  0.0453 -0.4537
  275SOL    HW1  866   5.630   5.688   2.415  0.3609 -0.1565 -0.6080
  275SOL    HW2  867   5.672   5.832   2.393 -0.5054  0.2582  0.3839
  276SOL     OW  868   5.248   5.373   2.589  0.2543  0.0997 -0.2223
  276SOL    HW1  869   5.182   5.422   2.540 -0.7149 -0.5213  0.4297
  276SOL    HW2  870   5.307   5.339   2.522  0.1535  0.9963 -0.7878
  277SOL     OW  871   5.662   1.647   2.272  0.3282  0.5705  0.5902
  277SOL    HW1  872   5.578   1.683   2.245 -0.5939 -0.9914  1.3001
  277SOL    HW2  873   5.711   1.723   2.304 -0.2943  1.7079 -1.0222
  278SOL     OW  874   5.414   4.651   2.010 -0.5788  0.1732 -0.3267
  278SOL    HW1  875   5.335   4.653   1.957 -1.0964 -0.2927  0.4117
  278SOL    HW2  876   5.459   4.571   1.984  0.2814  1.0270 -1.6077
  279SOL     OW  877   2.344   2.904   0.122  0.5822  0.0046 -0.0914
  279SOL    HW1  878   2.435   2.914   0.094  1.1064  0.0905  1.5344
  279SOL    HW2  879   2.338   2.957   0.202 -1.2874  1.1537 -0.9272
  280SOL     OW  880   2.614   2.465   0.072 -0.2012  0.2623 -0.0778
  280SOL    HW1  881   2.689   2.447   0.129 -0.3618 -0.0037  0.0559
  280SOL    HW2  882   2.556   2.519   0.126 -0.4736 -0.2072  0.1126
  281SOL     OW  883   5.260   4.616   2.622  0.2087 -0.1945 -0.2704
  281SOL    HW1  884   5.208   4.657   2.552 -1.8938 -0.3277  1.1086
  281SOL    HW2  885   5.204   4.545   2.655 -1.1176  2.5508  4.4882
  282SOL     OW  886   5.525   4.464   2.442  0.4214  0.3602  0.6958
  282SOL    HW1  887   5.467   4.426   2.376 -0.3578  1.0066  0.9995
  282SOL    HW2  888   5.467   4.492   2.513  1.1853  0.2353  1.3945
  283SOL     OW  889   5.889   5.454   2.701  0.5666 -0.3414  0.2046
  283SOL    HW1  890   5.794   5.453   2.717  0.2416 -0.8379 -1.5489
  283SOL    HW2  891   5.914   5.545   2.715 -0.1868 -0.1705  0.5189
  284SOL     OW  892   6.006   4.931   2.908  0.4722 -0.3085 -0.4216
  284SOL    HW1  893   5.969   4.842   2.907 -0.1827 -0.0434 -1.3007
  284SOL    HW2  894   5.941   4.984   2.954  0.0407  0.0277 -1.3853
  285SOL     OW  895   2.108   5.051   2.061 -0.1151  0.1476  0.1751
  285SOL    HW1  896   2.097   5.122   1.998 -1.1613 -0.4235 -0.3157
  285SOL    HW2  897   2.109   4.971   2.008  1.7537 -0.1895  0.6510
  286SOL     OW  898   4.776   5.598   2.219  0.3983  0.8539 -0.4649
  286SOL    HW1  899   4.725   5.610   2.299  0.7222  0.4303 -0.1931
  286SOL    HW2  900   4.714   5.616   2.149 -1.0718 -2.6012 -0.2772
  287SOL     OW  901   1.856   5.585   2.422  0.4475  0.1137 -0.0581
  287SOL    HW1  902   1.948   5.611   2.426 -0.1141  2.3441 -0.4868
  287SOL    HW2  903   1.831   5.596   2.330 -0.2882 -0.3809  0.0657
  288SOL     OW  904   5.637   4.695   2.171  0.0626 -0.0097  0.8031
  288SOL    HW1  905   5.566   4.691   2.106 -0.7327 -1.3537  1.7071
  288SOL    HW2  906   5.658   4.604   2.191  0.4646  0.3586  2.2345
  289SOL     OW  907   4.502   4.602   2.112 -0.5323 -0.5845  0.0277
  289SOL    HW1  908   4.446   4.671   2.075  0.6257  0.3327 -0.0878
  289SOL    HW2  909   4.517   4.630   2.202  0.6528 -0.1988 -0.2699
  290SOL     OW  910   3.520   3.511   0.138  0.2052  1.0967  0.4060
  290SOL    HW1  911   3.613   3.497   0.118  0.3773 -0.2528  1.9692
  290SOL    HW2  912   3.517   3.521   0.233 -1.2993  0.7640  0.4188
  291SOL     OW  913   5.592   5.738   2.941 -0.4974  0.1527  0.1765
  291SOL    HW1  914   5.612   5.727   3.033 -2.1958 -0.6271  0.4901
  291SOL    HW2  915   5.676   5.753   2.899  0.3724 -0.1870  1.7553
  292SOL     OW  916   6.020   5.717   2.609  0.2801  0.4520 -0.1365
  292SOL    HW1  917   6.068   5.643   2.570  1.3865  0.4052  1.2112
  292SOL    HW2  918   6.050   5.793   2.560  0.0561  0.1507 -0.7469
  293SOL     OW  919   3.060   2.574   0.312 -0.2990 -0.3860 -0.5212
  293SOL    HW1  920   3.107   2.657   0.311  0.5548 -0.8075  1.1153
  293SOL    HW2  921   3.096   2.525   0.237 -1.0935  0.8412 -1.7304
  294SOL     OW  922   4.806   4.871   2.687  0.1279 -0.2311  0.1015
  294SOL    HW1  923   4.890   4.892   2.646  0.0472 -0.2028 -0.0507
  294SOL    HW2  924   4.800   4.775   2.679  1.1466 -0.5059  2.0391
  295SOL     OW  925   5.033   5.261   2.948  0.4297 -0.1034 -0.0335
  295SOL    HW1  926   5.078   5.195   3.000  1.0906 -0.2353 -0.7522
  295SOL    HW2  927   5.063   5.246   2.858 -0.3176  0.4196 -0.3865
  296SOL     OW  928   5.582   4.853   2.995 -0.3882  0.4462 -0.2954
  296SOL    HW1  929   5.644   4.925   3.004 -1.1629  1.1485 -0.4457
  296SOL    HW2  930   5.563   4.825   3.085  0.5390 -0.1292 -0.2705
  297SOL     OW  931   2.027   3.964   0.370  0.4588  0.0196  0.0199
  297SOL    HW1  932   1.939   3.978   0.406  0.5472  1.0014 -0.1121
  297SOL    HW2  933   2.047   3.873   0.391  0.2534  0.3656  1.9179
  298SOL     OW  934   4.834   5.129   2.481 -0.4340  0.4142 -0.2294
  298SOL    HW1  935   4.885   5.055   2.515 -0.6118  0.2148 -0.3946
  298SOL    HW2  936   4.759   5.135   2.540 -1.8702 -1.2597 -1.7459
  299SOL     OW  937   5.004   4.521   3.034  0.2294  0.0739 -0.1593
  299SOL    HW1  938   4.921   4.569   3.025 -0.3348 -0.3930  1.9897
  299SOL    HW2  939   5.039   4.518   2.945 -2.3133 -0.1730 -1.2588
  300SOL     OW  940   5.933   5.661   2.322 -0.2418  0.4887  0.2261
  300SOL    HW1  941   5.866   5.711   2.369 -0.8237  1.3001 -1.3962
  300SOL    HW2  942   5.906   5.664   2.230  0.3230 -1.8668 -0.0920
  301SOL     OW  943   5.713   5.948   2.643 -0.4170  0.3252 -0.2197
  301SOL    HW1  944   5.743   5.905   2.724  0.8517  3.6067  1.2085
  301SOL    HW2  945   5.772   5.915   2.575  0.3129 -0.4001  0.7342
  302SOL     OW  946   1.958   5.045   2.481 -0.0098  0.4775 -0.2524
  302SOL    HW1  947   1.875   5.088   2.460 -0.0312  0.3348 -0.4606
  302SOL    HW2  948   1.936   4.986   2.553 -0.1841  0.1226 -0.5913
  303SOL     OW  949   4.693   5.945   2.681 -0.2953 -0.3217  0.1282
  303SOL    HW1  950   4.785   5.965   2.665 -0.4298 -0.0731 -0.3508
  303SOL    HW2  951   4.663   6.015   2.739 -0.1460 -0.4817  0.3988
  304SOL     OW  952   2.956   2.869   0.010  0.1864  0.2923 -0.4516
  304SOL    HW1  953   2.983   2.818  -0.066  1.3258  2.0768 -1.3260
  304SOL    HW2  954   2.891   2.815   0.054  0.4057 -1.3237 -2.0120
  305SOL     OW  955   5.849   5.733   2.853 -0.0210  0.0424 -0.3440
  305SOL    HW1  956   5.887   5.716   2.939 -0.8261  1.1128  0.2285
  305SOL    HW2  957   5.925   5.751   2.797  0.5058 -0.6932  0.1101
  306SOL     OW  958   5.536   4.426   1.930  0.5217 -0.0984  0.2139
  306SOL    HW1  959   5.601   4.362   1.960 -0.7547 -1.5293  0.0445
  306SOL    HW2  960   5.470   4.374   1.885  0.5605  1.5887 -1.9650
  307SOL     OW  961   2.470   2.614   0.248  0.1136 -0.6810  0.1981
  307SOL    HW1  962   2.431   2.690   0.207 -1.3115 -1.2768  0.4016
  307SOL    HW2  963   2.404   2.582   0.309  0.2099 -2.7277 -0.6782
  308SOL     OW  964   1.653   3.397   0.122 -0.1129 -0.1817  0.3932
  308SOL    HW1  965   1.575   3.427   0.076  0.4146  0.7442  0.0812
  308SOL    HW2  966   1.715   3.373   0.053  0.3379  0.3192  0.6102
  309SOL     OW  967   2.819   2.458   0.265  0.9425 -0.1282  0.0723
  309SOL    HW1  968   2.816   2.385   0.326 -1.7753  2.0209  2.8261
  309SOL    HW2  969   2.896   2.508   0.293 -0.4779  1.0361  2.2094
  310SOL     OW  970   4.585   4.401   2.363  0.1343  0.0732  0.3852
  310SOL    HW1  971   4.637   4.462   2.416  0.8814  0.2511 -0.5136
  310SOL    HW2  972   4.494   4.421   2.385  0.4285  0.2498  1.4633
  311SOL     OW  973   1.667   4.680   2.182  0.2267 -0.1450 -0.4220
  311SOL    HW1  974   1.631   4.723   2.259 -1.0175  0.2217 -1.1727
  311SOL    HW2  975   1.750   4.644   2.211  0.3283  0.9864  0.7826
  312SOL     OW  976   5.773   5.045   2.964  0.0233  0.1612 -0.1226
  312SOL    HW1  977   5.762   5.135   2.995 -0.7446  0.2012 -0.4665
  312SOL    HW2  978   5.721   5.042   2.883  1.3152 -0.1519 -0.9714
  313SOL     OW  979   1.563   4.478   1.997  0.5786  0.1634 -0.0011
  313SOL    HW1  980   1.591   4.403   2.049 -0.2566  0.3878  0.8068
  313SOL    HW2  981   1.592   4.554   2.048  0.0105  0.3888 -0.0085
  314SOL     OW  982   1.555   5.085   2.026  0.3242 -0.0909  0.1668
  314SOL    HW1  983   1.517   5.040   2.101 -3.5312  1.0644 -0.8684
  314SOL    HW2  984   1.502   5.056   1.951  1.7113  1.4635 -1.5131
  315SOL     OW  985   5.480   5.715   2.647 -0.9492 -0.0534  0.1212
  315SOL    HW1  986   5.524   5.650   2.701 -2.0776 -2.0177 -1.1967
  315SOL    HW2  987   5.551   5.762   2.604 -0.0692  0.7412  2.3144
  316SOL     OW  988   4.605   4.890   2.881  0.3634 -0.5686  0.0252
  316SOL    HW1  989   4.687   4.914   2.838  0.8448 -0.9133  0.7331
  316SOL    HW2  990   4.585   4.965   2.937 -0.3163 -0.0762 -0.8434
  317SOL     OW  991   4.457   4.590   2.740 -0.2660 -0.1179 -0.0535
  317SOL    HW1  992   4.372   4.563   2.706 -0.1454  0.9928 -1.3372
  317SOL    HW2  993   4.454   4.568   2.833 -0.8520 -2.7107 -0.6044
  318SOL     OW  994   3.642   2.503   0.095 -0.1940 -0.3818 -0.0040
  318SOL    HW1  995   3.562   2.461   0.129 -1.9565  1.2884 -1.8686
  318SOL    HW2  996   3.619   2.530   0.006  2.6456 -0.2509 -0.7683
  319SOL     OW  997   4.000   5.703   2.156  0.2969  0.4716  0.5619
  319SOL    HW1  998   4.011   5.798   2.161  1.2369  0.4254 -0.3300
  319SOL    HW2  999   3.909   5.691   2.130  0.3961  1.1529 -0.1234
  320SOL     OW 1000   2.227   4.203   0.137  0.2957 -0.5804 -0.7806
  320SOL    HW1 1001   2.319   4.191   0.161  0.3985 -0.5206 -1.1337
  320SOL    HW2 1002   2.225   4.287   0.091 -0.2464  0.3086  0.8016
  321SOL     OW 1003   5.029   5.662   2.968  0.1420 -0.0634 -0.4489
  321SOL    HW1 1004   4.997   5.751   2.960 -1.8885 -0.5572  1.2969
  321SOL    HW2 1005   5.113   5.662   2.922  0.7437  2.9945  0.4780
  322SOL     OW 1006   5.612   5.478   2.763 -0.7261 -0.5809 -0.4665
  322SOL    HW1 1007   5.549   5.407   2.776 -1.3744 -0.1219 -1.0513
  322SOL    HW2 1008   5.629   5.510   2.852  0.1056 -1.8952 -0.1201
  323SOL     OW 1009   4.472   4.656   3.044 -0.4721 -0.1928  0.0987
  323SOL    HW1 1010   4.499   4.612   3.125  0.3929 -0.2827 -0.2297
  323SOL    HW2 1011   4.551   4.701   3.013 -0.5220 -0.9479 -1.2060
  324SOL     OW 1012   5.057   4.954   2.565 -0.0476 -0.4632  0.2702
  324SOL    HW1 1013   5.100   5.018   2.622 -1.7127 -0.0536  1.1302
  324SOL    HW2 1014   5.115   4.878   2.566  0.2142 -0.2824  2.1576
  325SOL     OW 1015   4.170   2.782   0.014  0.6350 -0.7257  0.0445
  325SOL    HW1 1016   4.076   2.764   0.021  0.6219 -0.4467  0.5977
  325SOL    HW2 1017   4.208   2.697  -0.010  0.2412 -0.8331 -0.2164
  326SOL     OW 1018   3.165   2.846   0.486 -0.3012  0.0520 -0.6443
  326SOL    HW1 1019   3.186   2.855   0.393 -1.7785  0.9428 -0.9256
  326SOL    HW2 1020   3.236   2.891   0.531  0.0145  0.3113 -1.3737
  327SOL     OW 1021   3.260   3.866   0.315 -0.1352  0.0107 -0.3027
  327SOL    HW1 1022   3.288   3.787   0.361  3.4198  2.5416  2.4746
  327SOL    HW2 1023   3.301   3.859   0.228 -0.6911 -1.5564 -0.4676
  328SOL     OW 1024   4.432   4.801   2.468  0.0253  0.1738  0.3047
  328SOL    HW1 1025   4.438   4.816   2.562  1.6730  2.3816 -0.0774
  328SOL    HW2 1026   4.349   4.840   2.442 -1.3639 -2.0888  1.0229
  329SOL     OW 1027   1.961   3.098   0.055  0.5607  0.0426 -0.3233
  329SOL    HW1 1028   1.896   3.040   0.096  0.6863  0.2149  0.1313
  329SOL    HW2 1029   2.025   3.038   0.016  1.1406 -0.1547  0.8632
  330SOL     OW 1030   3.960   3.067   0.073  0.1678 -0.3596 -0.0594
  330SOL    HW1 1031   3.963   3.119  -0.007 -0.0542  1.5953  1.1205
  330SOL    HW2 1032   3.885   3.102   0.121  0.5893 -1.1388  1.2169
  331SOL     OW 1033   5.761   4.932   2.204 -0.0112  0.5406  0.1489
  331SOL    HW1 1034   5.711   4.851   2.199  2.5423 -1.1235  0.1789
  331SOL    HW2 1035   5.789   4.937   2.296  0.8260  0.8442 -0.1223
  332SOL     OW 1036   6.120   5.911   2.996  0.3637  0.1442 -0.8675
  332SOL    HW1 1037   6.174   5.832   2.986  0.5925 -0.0056  1.1706
  332SOL    HW2 1038   6.105   5.941   2.906  2.6653 -0.6081 -1.5737
  333SOL     OW 1039   5.559   6.195   2.580 -0.0953  0.4626 -0.0917
  333SOL    HW1 1040   5.593   6.110   2.609 -1.6745  0.2152  1.1496
  333SOL    HW2 1041   5.623   6.225   2.516 -1.1141 -3.1970 -3.2440
  334SOL     OW 1042   4.173   5.742   2.608 -0.2979  0.8894 -0.1040
  334SOL    HW1 1043   4.137   5.765   2.695 -1.1016  0.0541 -0.2018
  334SOL    HW2 1044   4.102   5.694   2.565  0.7494 -0.3297 -0.5223
  335SOL     OW 1045   1.803   4.720   1.924 -0.1515 -0.0590  0.1269
  335SOL    HW1 1046   1.801   4.630   1.891  3.3624 -0.4916  0.7768
  335SOL    HW2 1047   1.754   4.716   2.007 -0.8355 -1.1238 -0.3042
  336SOL     OW 1048   1.819   5.976   2.552 -0.2882 -0.0295  0.9545
  336SOL    HW1 1049   1.788   6.066   2.542 -1.6952 -0.6765 -1.0829
  336SOL    HW2 1050   1.881   5.964   2.480 -0.3077 -0.7631  1.0536
  337SOL     OW 1051   5.937   5.411   2.443  0.0349 -0.0165  0.0276
  337SOL    HW1 1052   5.928   5.434   2.535 -0.7102  0.6836 -0.2104
  337SOL    HW2 1053   5.952   5.495   2.399  1.8736 -0.4790 -0.3336
  338SOL     OW 1054   3.188   3.601   0.268 -0.0052 -0.3013 -0.2281
  338SOL    HW1 1055   3.117   3.646   0.222  0.1477  0.1333 -0.0516
  338SOL    HW2 1056   3.144   3.533   0.318 -0.4642  0.7267  0.8276
  339SOL     OW 1057   5.310   5.600   2.150  0.7380  0.2253  0.6582
  339SOL    HW1 1058   5.300   5.631   2.060  2.7340 -2.0220 -0.4786
  339SOL    HW2 1059   5.237   5.540   2.163  1.8495 -1.5086 -0.5560
  340SOL     OW 1060   3.744   3.672   0.334 -0.1730  0.0456 -0.0073
  340SOL    HW1 1061   3.756   3.604   0.401 -0.4985 -0.4542 -0.4469
  340SOL    HW2 1062   3.826   3.673   0.286  0.7528  1.6592  1.5046
  341SOL     OW 1063   5.902   4.155   2.660  0.4954  0.1085  0.0570
  341SOL    HW1 1064   5.854   4.146   2.742  0.7850 -0.5200  0.1583
  341SOL    HW2 1065   5.841   4.199   2.602  1.1094  2.8694  1.3313
  342SOL     OW 1066   4.100   4.779   2.668 -0.0647  0.0523 -0.3123
  342SOL    HW1 1067   4.021   4.805   2.714 -1.9851 -2.5223 -1.8579
  342SOL    HW2 1068   4.138   4.710   2.724 -0.1989 -0.3130 -0.6690
  343SOL     OW 1069   1.312   1.328   1.804  0.7471 -0.4313  0.1897
  343SOL    HW1 1070   1.278   1.276   1.877 -0.0338  0.2428  0.3256
  343SOL    HW2 1071   1.301   1.273   1.727  1.1014 -0.9516  0.5101
  344SOL     OW 1072   3.401   2.653   0.205  0.5255  0.3498  0.0381
  344SOL    HW1 1073   3.452   2.700   0.271 -0.4640  1.7802 -0.1703
  344SOL    HW2 1074   3.399   2.562   0.236  0.7569  0.8283  1.5444
  345SOL     OW 1075   5.181   4.978   2.180  0.2360 -0.4591 -0.2358
  345SOL    HW1 1076   5.265   4.939   2.206  1.2184  1.4631 -0.3659
  345SOL    HW2 1077   5.120   4.952   2.249  1.0996 -1.3143  0.2302
  346SOL     OW 1078   1.457   1.914   1.625  0.4837  0.2136  0.5858
  346SOL    HW1 1079   1.474   1.883   1.714  0.7413  0.2525  0.5517
  346SOL    HW2 1080   1.530   1.972   1.606 -0.6481  1.8984  1.1425
  347SOL     OW 1081   4.171   5.919   2.999  0.0966 -0.6312 -1.0646
  347SOL    HW1 1082   4.258   5.944   2.967  1.3563  0.3000  2.5647
  347SOL    HW2 1083   4.150   5.986   3.065 -3.3177 -0.9681 -1.6383
  348SOL     OW 1084   6.234   5.654   2.955 -0.1137  0.1112 -0.3058
  348SOL    HW1 1085   6.309   5.631   3.010  1.5050  0.4102 -2.2570
  348SOL    HW2 1086   6.201   5.570   2.924  0.8780  0.0309 -1.2209
  349SOL     OW 1087   5.552   5.088   2.134  0.8217 -0.2078  0.1612
  349SOL    HW1 1088   5.491   5.021   2.167 -0.3073  0.4500 -0.5387
  349SOL    HW2 1089   5.635   5.068   2.178  0.7940 -2.6431 -0.7389
  350SOL     OW 1090   5.545   4.869   2.514 -0.5896  0.0421  0.0359
  350SOL    HW1 1091   5.495   4.934   2.563 -0.3381 -0.0791  0.4532
  350SOL    HW2 1092   5.556   4.796   2.575  1.3534  0.6546  0.4727
  351SOL     OW 1093   5.038   5.541   2.469  0.2364  0.5183  0.2715
  351SOL    HW1 1094   5.047   5.537   2.374 -0.5869  0.6229  0.1851
  351SOL    HW2 1095   5.074   5.627   2.493  3.5130 -0.7463  0.4460
  352SOL     OW 1096   3.969   2.629   0.172 -0.2591  0.2244  0.3021
  352SOL    HW1 1097   3.966   2.640   0.266  0.2883  2.4673  0.1141
  352SOL    HW2 1098   4.038   2.564   0.158  0.1996  0.4531  1.4119
  353SOL     OW 1099   4.640   5.819   2.406 -0.1168 -0.1992 -0.0520
  353SOL    HW1 1100   4.547   5.805   2.388  0.0190 -0.8039 -0.3098
  353SOL    HW2 1101   4.643   5.847   2.497 -0.7088  1.6784 -0.5662
  354SOL     OW 1102   3.139   2.416   0.088  0.2212  0.2780 -0.2808
  354SOL    HW1 1103   3.118   2.441  -0.002  1.8845 -1.7782 -1.3381
  354SOL    HW2 1104   3.077   2.347   0.109 -0.3360  0.9385  0.2647
  355SOL     OW 1105   4.246   4.202   1.727 -0.2505  0.2742  0.2646
  355SOL    HW1 1106   4.238   4.159   1.813 -0.0944  0.6025  0.4447
  355SOL    HW2 1107   4.269   4.292   1.747  1.0405  0.0523 -0.1555
  356SOL     OW 1108   3.753   2.831   0.189 -0.0967 -0.2808  0.2763
  356SOL    HW1 1109   3.813   2.781   0.134 -0.1418 -0.5205  0.4451
  356SOL    HW2 1110   3.747   2.916   0.145  0.0493 -0.3901  0.0375
  357SOL     OW 1111   3.843   4.737   2.117  0.1030 -0.7445  0.0788
  357SOL    HW1 1112   3.923   4.787   2.130 -0.6453  0.5627 -0.1383
  357SOL    HW2 1113   3.817   4.755   2.027 -1.0284 -0.2168  0.4842
  358SOL     OW 1114   5.570   5.495   2.056 -0.1426  0.1376  0.2236
  358SOL    HW1 1115   5.540   5.566   2.113  0.0686 -0.1774  0.7342
  358SOL    HW2 1116   5.650   5.464   2.096  0.7718  0.8134 -1.0086
  359SOL     OW 1117   5.340   5.420   2.998  0.1144  0.2257 -0.4938
  359SOL    HW1 1118   5.252   5.412   3.036  0.3851  0.9640  0.3092
  359SOL    HW2 1119   5.397   5.440   3.072  0.9321 -0.0263 -1.0418
  360SOL     OW 1120   6.187   2.201   2.665  0.6765  0.0655  0.1589
  360SOL    HW1 1121   6.173   2.262   2.738 -1.1270 -0.9282  0.6980
  360SOL    HW2 1122   6.206   2.117   2.707 -0.6764 -0.5900 -0.4975
  361SOL     OW 1123   6.170   5.368   2.871 -0.6362  0.0506 -0.3694
  361SOL    HW1 1124   6.200   5.424   2.799 -0.7494  0.3441 -0.1922
  361SOL    HW2 1125   6.221   5.287   2.861  0.2551  0.5494 -0.0509
  362SOL     OW 1126   4.881   3.801   2.271  0.2375 -0.0551 -0.2246
  362SOL    HW1 1127   4.834   3.884   2.263  0.0491 -0.3341 -2.5482
  362SOL    HW2 1128   4.869   3.776   2.363 -0.9920  1.7192  0.1540
  363SOL     OW 1129   5.610   5.086   2.686  0.2054  0.1739 -0.1590
  363SOL    HW1 1130   5.657   5.143   2.626 -0.7025  0.8432 -0.2543
  363SOL    HW2 1131   5.551   5.144   2.733 -0.0160 -0.5389  0.4624
  364SOL     OW 1132   4.066   2.941   0.328 -0.3331  0.0537  0.1023
  364SOL    HW1 1133   4.014   2.935   0.247 -1.2661 -1.1712  0.7418
  364SOL    HW2 1134   4.039   2.864   0.379  1.0922  0.1634  1.0880
  365SOL     OW 1135   5.410   5.274   2.023 -0.2145 -0.0945  0.5528
  365SOL    HW1 1136   5.459   5.193   2.039 -0.4118 -0.4754 -0.6171
  365SOL    HW2 1137   5.476   5.343   2.028  0.0553 -0.3800  1.0446
  366SOL     OW 1138   2.996   3.771   0.063  0.5709  0.7097  0.3167
  366SOL    HW1 1139   3.051   3.703   0.025  0.1239 -0.0973  1.0711
  366SOL    HW2 1140   2.927   3.785  -0.001  0.3946  0.0905  0.3632
  367SOL     OW 1141   5.427   5.264   2.790 -0.2537  0.3037  0.3014
  367SOL    HW1 1142   5.412   5.320   2.866  1.7950  1.7991 -0.3036
  367SOL    HW2 1143   5.374   5.303   2.720  0.1882  0.7579  0.2115
  368SOL     OW 1144   5.952   4.767   2.424 -0.0971 -0.0954  0.6830
  368SOL    HW1 1145   5.943   4.862   2.434  1.4579  0.3052 -1.1764
  368SOL    HW2 1146   6.027   4.744   2.480  0.0165 -0.0997  0.5293
  369SOL     OW 1147   5.863   6.247   2.794 -0.1697  0.1049  0.5860
  369SOL    HW1 1148   5.858   6.307   2.868 -0.4312  1.5059 -0.5187
  369SOL    HW2 1149   5.777   6.252   2.753 -0.2377 -1.1427  0.5322
  370SOL     OW 1150   4.756   5.539   2.629 -0.0557  0.0812 -0.1211
  370SOL    HW1 1151   4.830   5.579   2.584 -1.5052  1.3039 -1.5238
  370SOL    HW2 1152   4.796   5.492   2.703  2.0643  0.9273 -0.6443
  371SOL     OW 1153   6.026   4.482   2.948  0.0869  0.6394 -0.1276
  371SOL    HW1 1154   5.931   4.469   2.947  0.2251 -0.4808  0.0405
  371SOL    HW2 1155   6.056   4.445   2.865  0.2554  2.2337 -0.8245
  372SOL     OW 1156   4.152   4.900   2.411 -0.0553 -0.0751 -0.0099
  372SOL    HW1 1157   4.173   4.991   2.432 -0.4940  0.0839 -0.2436
  372SOL    HW2 1158   4.109   4.866   2.490  1.3672 -0.5161  0.6147
  373SOL     OW 1159   2.079   5.701   2.750 -0.2138 -0.3293 -0.7367
  373SOL    HW1 1160   2.074   5.711   2.655 -0.6932  0.2369 -0.6608
  373SOL    HW2 1161   1.988   5.701   2.779 -0.0568  0.2518 -0.2097
  374SOL     OW 1162   2.751   2.735   0.181 -0.0821 -0.8777 -0.3062
  374SOL    HW1 1163   2.797   2.767   0.258 -0.7218  0.7593 -0.5737
  374SOL    HW2 1164   2.686   2.674   0.216  0.9922 -1.7405  0.2361
  375SOL     OW 1165   5.150   5.792   2.449  0.0748 -0.1310 -0.1054
  375SOL    HW1 1166   5.228   5.780   2.395  0.9357  0.3506  0.9891
  375SOL    HW2 1167   5.172   5.865   2.507 -1.8263  1.1510 -0.8852
  376SOL     OW 1168   5.751   4.455   2.919 -0.0200 -0.1274  0.5207
  376SOL    HW1 1169   5.781   4.546   2.911  1.1590 -0.3894  1.6544
  376SOL    HW2 1170   5.669   4.453   2.869 -0.0846  1.5653  0.4760
  377SOL     OW 1171   5.499   4.178   2.720  0.2124 -0.1208  0.3476
  377SOL    HW1 1172   5.412   4.143   2.738 -0.1157  0.5487  0.1289
  377SOL    HW2 1173   5.515   4.157   2.628 -0.8735  2.0318 -0.4155
  378SOL     OW 1174   5.041   5.499   2.181  0.5838  0.0231 -0.1022
  378SOL    HW1 1175   4.951   5.508   2.213  0.8292  1.2129  0.2774
  378SOL    HW2 1176   5.056   5.404   2.181 -0.7911 -0.2347 -0.5395
  379SOL     OW 1177   4.885   5.460   2.831  0.3286  0.7399  0.5303
  379SOL    HW1 1178   4.928   5.383   2.869 -1.2316  0.5081  1.9526
  379SOL    HW2 1179   4.925   5.534   2.877  1.5477  0.7871 -0.5573
  380SOL     OW 1180   1.328   4.199   1.694  0.1491  0.0033  0.5939
  380SOL    HW1 1181   1.302   4.112   1.724  1.2141 -0.5731 -0.0938
  380SOL    HW2 1182   1.276   4.214   1.615  2.5367 -1.6024 -1.3981
  381SOL     OW 1183   5.576   4.721   2.735  0.4488 -0.0444  0.2545
  381SOL    HW1 1184   5.576   4.767   2.819  1.6018  0.1623  0.1602
  381SOL    HW2 1185   5.563   4.629   2.757  1.2115 -0.0491  0.7121
  382SOL     OW 1186   5.842   4.704   2.834  0.0312  0.1283 -0.1103
  382SOL    HW1 1187   5.907   4.656   2.783  0.7202  1.2656 -0.3370
  382SOL    HW2 1188   5.765   4.708   2.778  0.9571  1.8349 -1.3265
  383SOL     OW 1189   4.199   5.440   2.427 -0.1336  0.8140  0.2732
  383SOL    HW1 1190   4.233   5.353   2.444 -1.4645  0.1860 -0.1731
  383SOL    HW2 1191   4.249   5.497   2.486  1.3037 -0.1121  0.0087
  384SOL     OW 1192   5.198   1.520   2.140  0.0804  0.3574  0.5198
  384SOL    HW1 1193   5.202   1.428   2.169 -0.2680 -0.2865 -1.3584
  384SOL    HW2 1194   5.111   1.528   2.100  1.1157  0.7278 -1.7493
  385SOL     OW 1195   2.389   4.581   2.960 -0.1500  0.3370  0.2959
  385SOL    HW1 1196   2.416   4.514   3.022  0.3984 -0.2666 -0.5651
  385SOL    HW2 1197   2.444   4.656   2.980 -0.2516  0.2788  0.7938
  386SOL     OW 1198   4.519   2.159   1.611 -0.1655  0.4358  0.0642
  386SOL    HW1 1199   4.428   2.173   1.584 -0.4847 -1.4606  0.0690
  386SOL    HW2 1200   4.537   2.068   1.589  1.1010  0.1918  1.9141
  387SOL     OW 1201   4.311   2.137   0.622  0.0105 -0.3370 -0.4414
  387SOL    HW1 1202   4.357   2.221   0.624 -1.2943  0.4343  2.4962
  387SOL    HW2 1203   4.357   2.084   0.688 -1.7790 -0.3385  0.8806
  388SOL     OW 1204   4.540   2.838   1.134 -0.0391  0.0732 -0.3062
  388SOL    HW1 1205   4.486   2.867   1.208  1.7147  0.7278  0.7936
  388SOL    HW2 1206   4.497   2.874   1.057 -0.2295  2.1164  0.6924
  389SOL     OW 1207   1.264   3.546   0.503  0.0882 -0.3195 -0.4597
  389SOL    HW1 1208   1.201   3.550   0.431  1.3290  0.6034 -1.5672
  389SOL    HW2 1209   1.328   3.480   0.475 -0.7608 -1.8032  0.9960
  390SOL     OW 1210   0.832   2.736   0.470 -0.3820  0.0681 -0.4629
  390SOL    HW1 1211   0.783   2.717   0.550  1.6012 -0.3668  0.7169
  390SOL    HW2 1212   0.874   2.820   0.486 -1.2080  0.7669 -1.7285
  391SOL     OW 1213   1.510   2.737   0.089  0.5872  0.1023  0.2292
  391SOL    HW1 1214   1.462   2.816   0.113  1.0845 -0.0089  1.7193
  391SOL    HW2 1215   1.468   2.667   0.139 -0.5130 -0.8165 -1.8532
  392SOL     OW 1216   4.826   2.849   1.205 -0.0235  0.1951 -0.0874
  392SOL    HW1 1217   4.744   2.863   1.158 -0.6564 -0.8482  0.6499
  392SOL    HW2 1218   4.821   2.758   1.235  0.5811  0.6478  1.5184
  393SOL     OW 1219   5.470   2.432   2.420 -0.0025  0.0531  0.3088
  393SOL    HW1 1220   5.513   2.516   2.402  1.5115 -0.9253 -0.9003
  393SOL    HW2 1221   5.510   2.402   2.501 -1.1677  0.8731  1.2069
  394SOL     OW 1222   4.826   2.522   0.776  0.7078  0.0635 -0.2041
  394SOL    HW1 1223   4.858   2.553   0.860  0.1338 -1.9223  0.8223
  394SOL    HW2 1224   4.820   2.427   0.786 -1.0004 -0.0785 -1.8992
  395SOL     OW 1225   5.196   3.233   1.772  0.2189  0.3447  0.3993
  395SOL    HW1 1226   5.263   3.171   1.745 -1.6165 -0.9578 -1.4682
  395SOL    HW2 1227   5.118   3.206   1.725 -1.2976  2.6230  1.4240
  396SOL     OW 1228   4.422   3.208   1.131  0.7555 -0.2993  0.4857
  396SOL    HW1 1229   4.479   3.264   1.079  0.1938  0.1677  0.3612
  396SOL    HW2 1230   4.434   3.120   1.095 -0.0367  0.0972 -0.8068
  397SOL     OW 1231   1.409   3.353   1.775 -0.2608  0.4138 -0.4395
  397SOL    HW1 1232   1.504   3.363   1.770 -0.4266  2.3259 -0.2918
  397SOL    HW2 1233   1.387   3.298   1.700  1.1285 -1.6860  0.5718
  398SOL     OW 1234   4.878   2.118   1.989  0.3126  0.4426 -0.1227
  398SOL    HW1 1235   4.941   2.178   1.950 -0.3206 -0.1773 -2.2271
  398SOL    HW2 1236   4.800   2.125   1.933  0.2236 -2.3413 -0.4846
  399SOL     OW 1237   1.243   2.556   0.816  0.6038 -0.7578 -0.2529
  399SOL    HW1 1238   1.269   2.464   0.817  1.3231 -0.5577  0.6954
  399SOL    HW2 1239   1.322   2.603   0.792  0.2372 -0.3760 -0.7374
  400SOL     OW 1240   0.412   3.329   0.381 -0.3792 -0.2327  0.3556
  400SOL    HW1 1241   0.484   3.361   0.327 -1.5278 -0.1533 -1.1707
  400SOL    HW2 1242   0.401   3.238   0.355 -1.5928  0.0846 -0.2826
  401SOL     OW 1243   5.120   2.781   1.750 -0.1541 -0.4763 -0.3710
  401SOL    HW1 1244   5.070   2.860   1.726 -1.1800  0.1160  3.1325
  401SOL    HW2 1245   5.211   2.811   1.752  0.0361 -0.5829 -3.1237
  402SOL     OW 1246   4.537   2.935   0.633 -0.3292  0.1695 -0.5098
  402SOL    HW1 1247   4.604   2.973   0.691  0.6477  0.8744 -2.0359
  402SOL    HW2 1248   4.477   3.008   0.616 -0.4791  0.0330 -0.5610
  403SOL     OW 1249   4.559   2.208   1.265  0.8458 -0.0038 -0.3410
  403SOL    HW1 1250   4.546   2.301   1.248 -1.1110 -0.6024 -2.8161
  403SOL    HW2 1251   4.527   2.194   1.354 -0.0875  1.4755 -0.4238
  404SOL     OW 1252   4.863   4.067   1.304  0.3578 -0.0659 -0.2350
  404SOL    HW1 1253   4.818   4.144   1.268  0.7595  0.1752 -0.2266
  404SOL    HW2 1254   4.827   4.057   1.392  0.0767 -0.0747 -0.3495
  405SOL     OW 1255   2.442   5.156   2.574  0.5923  0.4486 -0.3762
  405SOL    HW1 1256   2.383   5.229   2.559 -0.9744 -0.8581 -0.9506
  405SOL    HW2 1257   2.403   5.107   2.647  0.5934 -0.7596 -1.1440
  406SOL     OW 1258   1.783   2.112   1.171  0.2837 -0.0317  0.5393
  406SOL    HW1 1259   1.865   2.067   1.151  0.3107  0.9318 -1.8451
  406SOL    HW2 1260   1.715   2.048   1.151  0.3963  0.0159 -0.0104
  407SOL     OW 1261   0.647   2.249   0.793 -0.2528 -0.1554  0.4321
  407SOL    HW1 1262   0.571   2.201   0.759 -0.8316  0.4168  0.8859
  407SOL    HW2 1263   0.682   2.193   0.862 -0.0801 -0.5567  0.0244
  408SOL     OW 1264   1.718   3.738   0.544 -0.1768 -0.6210 -0.6403
  408SOL    HW1 1265   1.785   3.673   0.524 -1.8057 -2.7495  0.3606
  408SOL    HW2 1266   1.649   3.723   0.480 -0.4029  0.4284 -0.6625
  409SOL     OW 1267   2.249   5.519   2.834  0.1587  0.3315 -0.6141
  409SOL    HW1 1268   2.168   5.570   2.830  0.5386  0.8685 -2.7012
  409SOL    HW2 1269   2.299   5.559   2.905 -1.6186 -0.4544  1.2115
  410SOL     OW 1270   1.749   2.613   0.643  0.2034 -0.6717 -0.5069
  410SOL    HW1 1271   1.788   2.531   0.613  0.6637 -0.4546 -0.5092
  410SOL    HW2 1272   1.823   2.673   0.651  0.1609 -0.8141  1.3823
  411SOL     OW 1273   1.668   2.935   0.439 -0.1499  0.0849  0.1032
  411SOL    HW1 1274   1.599   2.879   0.472 -1.2085  0.9751 -0.5055
  411SOL    HW2 1275   1.629   3.023   0.437  1.0092  0.6163 -0.2095
  412SOL     OW 1276   4.199   2.848   1.994 -0.2258  0.1955  0.3162
  412SOL    HW1 1277   4.186   2.831   1.901 -3.2537 -0.5184  0.7592
  412SOL    HW2 1278   4.162   2.935   2.008  0.5999  0.4818  0.8067
  413SOL     OW 1279   0.361   3.080   0.298  0.0038  0.2898 -0.1278
  413SOL    HW1 1280   0.371   3.007   0.360 -1.8359  0.1287  0.0570
  413SOL    HW2 1281   0.397   3.047   0.216  0.3357 -0.3618  0.2728
  414SOL     OW 1282   1.258   3.224   1.345 -0.5049 -0.0356  0.5301
  414SOL    HW1 1283   1.176   3.265   1.319 -0.0332 -0.1034 -1.1736
  414SOL    HW2 1284   1.312   3.296   1.377 -1.0800  0.0543  1.3435
  415SOL     OW 1285   0.930   2.009   0.729 -0.2045 -0.3631  0.1422
  415SOL    HW1 1286   0.873   2.070   0.682  0.0835  0.0078  0.2721
  415SOL    HW2 1287   0.888   1.924   0.718  0.0055 -0.3340 -1.0361
  416SOL     OW 1288   4.174   2.862   1.712  0.4567  0.5714  0.4657
  416SOL    HW1 1289   4.210   2.939   1.667  1.9587 -1.1355 -1.4606
  416SOL    HW2 1290   4.091   2.844   1.668  0.1137  1.0586  0.9050
  417SOL     OW 1291   1.456   2.722   0.398  0.0418 -0.0339  0.0255
  417SOL    HW1 1292   1.383   2.690   0.345 -0.0527  2.7077 -1.6772
  417SOL    HW2 1293   1.417   2.791   0.452  1.2748  1.1854 -0.6101
  418SOL     OW 1294   1.233   3.939   1.749  0.1184  0.1517  0.0012
  418SOL    HW1 1295   1.175   3.921   1.823  1.5526 -1.8369  0.7301
  418SOL    HW2 1296   1.254   3.852   1.714  1.4296  0.9181 -1.2025
  419SOL     OW 1297   5.188   1.892   1.760  0.1910 -0.0831 -0.1224
  419SOL    HW1 1298   5.243   1.863   1.832  0.0324 -0.0688  0.0045
  419SOL    HW2 1299   5.243   1.952   1.710  0.4360 -0.4091 -0.2423
  420SOL     OW 1300   1.280   3.113   1.071 -0.0870 -0.6840  0.2908
  420SOL    HW1 1301   1.299   3.126   1.164  0.6310 -0.5495  0.1292
  420SOL    HW2 1302   1.225   3.035   1.069 -1.1182 -0.0007  0.9267
  421SOL     OW 1303   1.231   3.872   0.755 -0.0958  0.2339 -0.2805
  421SOL    HW1 1304   1.180   3.898   0.679 -0.1765  2.2262  0.3795
  421SOL    HW2 1305   1.176   3.897   0.830  1.0713  0.7950  0.4246
  422SOL     OW 1306   2.742   4.454   3.001 -0.0619 -0.0034  0.0259
  422SOL    HW1 1307   2.687   4.496   2.935  0.2332  0.1412 -0.1324
  422SOL    HW2 1308   2.692   4.378   3.030  0.0369 -0.3845 -0.7667
  423SOL     OW 1309   1.482   2.487   1.204  0.2126  0.0174  0.5081
  423SOL    HW1 1310   1.455   2.413   1.260 -2.0835  0.1311 -0.3396
  423SOL    HW2 1311   1.422   2.558   1.228  0.2156  0.5527 -0.9926
  424SOL     OW 1312   1.563   3.641   0.358  0.0975 -0.1248  0.3984
  424SOL    HW1 1313   1.566   3.667   0.266 -0.4547  1.6997  0.8461
  424SOL    HW2 1314   1.498   3.571   0.361  0.2656 -0.3334 -0.6327
  425SOL     OW 1315   4.928   2.236   1.671  0.2748 -0.2654 -0.4338
  425SOL    HW1 1316   4.977   2.169   1.623  3.1866  1.0772  0.3935
  425SOL    HW2 1317   4.964   2.319   1.637 -0.3978  0.7792  1.3014
  426SOL     OW 1318   5.513   2.348   1.978  0.1803  0.0643 -0.4267
  426SOL    HW1 1319   5.447   2.393   2.031 -0.0773 -1.8815  1.0310
  426SOL    HW2 1320   5.591   2.402   1.987 -0.2307  0.4819  0.9002
  427SOL     OW 1321   5.160   2.572   1.943  0.8213 -0.7026 -0.4189
  427SOL    HW1 1322   5.169   2.655   1.896  1.6871 -0.2257  0.5575
  427SOL    HW2 1323   5.243   2.561   1.989  0.4701 -1.7899 -0.0070
  428SOL     OW 1324   5.305   2.135   1.589  0.1404  0.2643  0.4941
  428SOL    HW1 1325   5.326   2.219   1.548  0.9532 -0.2497 -0.1675
  428SOL    HW2 1326   5.362   2.131   1.666  0.8179 -0.1219 -0.0292
  429SOL     OW 1327   0.932   2.719   0.211 -0.1086  0.1449  0.2871
  429SOL    HW1 1328   0.898   2.716   0.300 -1.6387 -0.4906 -0.2803
  429SOL    HW2 1329   0.881   2.787   0.167  1.1353  0.9786  0.0551
  430SOL     OW 1330   4.349   2.768   0.853  0.0162  0.0135  0.3158
  430SOL    HW1 1331   4.424   2.709   0.850  0.9755  1.1029  1.5450
  430SOL    HW2 1332   4.322   2.777   0.762  1.8227  0.1033 -0.2536
  431SOL     OW 1333   4.111   3.803   1.603  0.1149 -0.2547 -0.2620
  431SOL    HW1 1334   4.130   3.791   1.697 -2.1161  0.4860  0.3284
  431SOL    HW2 1335   4.109   3.714   1.568  1.7144 -0.5050  0.2027
  432SOL     OW 1336   3.078   4.514   2.995 -0.3695 -0.1552  0.0952
  432SOL    HW1 1337   3.147   4.492   3.057  0.9192  1.0567 -0.8332
  432SOL    HW2 1338   3.001   4.466   3.025  0.7893 -1.2761  1.3595
  433SOL     OW 1339   1.354   2.557   1.878  0.3409 -0.3994  0.0912
  433SOL    HW1 1340   1.378   2.639   1.922 -1.1722  0.2080 -0.1509
  433SOL    HW2 1341   1.287   2.583   1.814  0.4957 -1.6942 -0.6332
  434SOL     OW 1342   1.158   3.045   0.335 -0.3203 -0.3796  0.0809
  434SOL    HW1 1343   1.105   3.048   0.256 -0.1104 -0.7620 -0.0778
  434SOL    HW2 1344   1.128   3.119   0.387 -0.7788 -0.3979 -0.1538
  435SOL     OW 1345   0.948   1.758   1.229 -0.0907  0.3485  0.0765
  435SOL    HW1 1346   0.878   1.706   1.266  0.5891 -0.1124  0.7470
  435SOL    HW2 1347   1.004   1.779   1.303  1.1875 -0.4052 -0.6445
  436SOL     OW 1348   0.715   3.038   0.544 -0.7087 -0.2846 -0.7439
  436SOL    HW1 1349   0.685   3.031   0.635  0.1312  1.0102 -0.3382
  436SOL    HW2 1350   0.805   3.007   0.546 -0.5455  0.1700 -1.0496
  437SOL     OW 1351   4.958   3.109   1.046 -0.5104  0.1139  0.1538
  437SOL    HW1 1352   4.899   3.179   1.076 -1.9498 -0.7450 -0.5538
  437SOL    HW2 1353   4.912   3.028   1.068  1.2965 -0.6667  1.3071
  438SOL     OW 1354   1.938   3.228   0.756 -0.0525  0.3437 -0.1692
  438SOL    HW1 1355   1.848   3.254   0.739 -0.0045  0.4210 -0.3014
  438SOL    HW2 1356   1.990   3.276   0.692  0.1531  0.8597  0.3682
  439SOL     OW 1357   5.254   3.106   1.544  0.1744 -0.0481  0.8161
  439SOL    HW1 1358   5.246   3.134   1.453  0.4953  0.2838  0.8859
  439SOL    HW2 1359   5.164   3.094   1.574  0.0164  0.9854  0.7982
  440SOL     OW 1360   0.369   2.349   0.181 -0.4246 -0.2492 -0.4871
  440SOL    HW1 1361   0.344   2.342   0.273  0.2175 -1.0554 -0.3696
  440SOL    HW2 1362   0.464   2.352   0.182 -0.4335  1.1282 -1.0463
  441SOL     OW 1363   0.983   2.667   0.733 -0.0500 -0.4219 -0.1739
  441SOL    HW1 1364   1.078   2.652   0.727  0.1563  0.5028  0.4768
  441SOL    HW2 1365   0.944   2.600   0.677  0.9174 -1.5557  0.4685
  442SOL     OW 1366   4.628   3.287   1.806 -0.0681 -0.5250 -0.1180
  442SOL    HW1 1367   4.549   3.298   1.860  0.6869 -0.2358  0.9578
  442SOL    HW2 1368   4.597   3.301   1.716 -1.0679  0.5422  0.3635
  443SOL     OW 1369   2.949   5.859   3.018  0.1056  1.0319 -0.7306
  443SOL    HW1 1370   2.978   5.932   2.963  1.1466  0.0454 -1.5242
  443SOL    HW2 1371   2.924   5.790   2.956  0.4387  0.2206  0.0108
  444SOL     OW 1372   4.290   2.012   1.793  0.3850  0.1114 -0.7077
  444SOL    HW1 1373   4.351   1.950   1.754 -1.2214 -1.9044 -0.1995
  444SOL    HW2 1374   4.294   1.995   1.887 -0.6495  0.1656 -0.6336
  445SOL     OW 1375   1.416   3.469   0.043  0.2821  0.3077  0.7091
  445SOL    HW1 1376   1.426   3.563   0.063  2.2715  0.2222  0.3571
  445SOL    HW2 1377   1.338   3.464  -0.012 -0.1619  1.6856  1.1750
  446SOL     OW 1378   0.611   3.259   0.148  0.0843  0.5385 -0.4359
  446SOL    HW1 1379   0.561   3.182   0.119 -0.7971  0.3756  1.3625
  446SOL    HW2 1380   0.686   3.222   0.194 -0.2193  0.7464  0.2300
  447SOL     OW 1381   1.313   2.296   0.709 -0.1170  0.4713  0.3127
  447SOL    HW1 1382   1.313   2.200   0.710 -0.4663  0.4442  2.1900
  447SOL    HW2 1383   1.221   2.319   0.694  0.3082  0.5903 -2.5386
  448SOL     OW 1384   4.474   3.649   0.975  0.5170  0.3628 -0.0509
  448SOL    HW1 1385   4.399   3.708   0.973 -0.3713 -0.6299  1.7799
  448SOL    HW2 1386   4.548   3.703   0.947 -0.4815  1.9849  0.3193
  449SOL     OW 1387   0.876   3.516   1.128 -0.6467  0.0527  0.4296
  449SOL    HW1 1388   0.893   3.602   1.089 -1.6341 -0.4340 -1.1802
  449SOL    HW2 1389   0.791   3.526   1.171 -1.6599 -0.5557 -1.3244
  450SOL     OW 1390   0.580   2.746   0.650  0.4195  0.3771  0.2526
  450SOL    HW1 1391   0.562   2.807   0.722  0.6928  0.7634 -0.0028
  450SOL    HW2 1392   0.531   2.667   0.673 -3.3025  1.9810 -1.3832
  451SOL     OW 1393   1.545   2.352   1.799  0.2077  0.1637  0.6468
  451SOL    HW1 1394   1.478   2.284   1.797 -1.2872  1.5560 -1.9658
  451SOL    HW2 1395   1.498   2.434   1.813  1.2794  1.1592 -1.0282
  452SOL     OW 1396   0.516   1.859  -0.012 -0.5845  0.6869  0.3330
  452SOL    HW1 1397   0.514   1.953   0.006 -0.3932  0.8546 -0.4932
  452SOL    HW2 1398   0.453   1.847  -0.083  0.3878  0.4053 -0.5046
  453SOL     OW 1399   4.682   2.244   1.798 -0.1060  0.1900 -0.1582
  453SOL    HW1 1400   4.620   2.200   1.741  1.2858 -1.5309 -0.4455
  453SOL    HW2 1401   4.761   2.252   1.745  0.5972  0.3413  0.8815
  454SOL     OW 1402   4.695   3.074   1.499 -0.5846 -0.6212  0.2686
  454SOL    HW1 1403   4.647   2.996   1.525 -1.5047 -0.1226  0.1353
  454SOL    HW2 1404   4.768   3.080   1.560  0.3539 -2.3744 -0.6136
  455SOL     OW 1405   5.447   2.130   1.827  0.1326  0.1024 -0.0938
  455SOL    HW1 1406   5.463   2.217   1.865  1.4204  0.0793 -0.5339
  455SOL    HW2 1407   5.393   2.086   1.892  1.9633  0.2038  1.6034
  456SOL     OW 1408   4.861   3.022   0.799  0.4220 -0.8395  0.2951
  456SOL    HW1 1409   4.890   3.073   0.874 -1.1271  0.2334  0.2120
  456SOL    HW2 1410   4.791   2.967   0.833 -0.5662 -0.0584 -0.3992
  457SOL     OW 1411   0.847   2.119   0.981  0.3513 -0.2705  0.2122
  457SOL    HW1 1412   0.876   2.144   0.893  1.0996 -2.3354 -0.1652
  457SOL    HW2 1413   0.923   2.077   1.021 -0.0288  0.4722  1.8253
  458SOL     OW 1414   0.533   2.132   0.354 -0.3659  0.4720  0.3062
  458SOL    HW1 1415   0.474   2.060   0.333 -0.5530  0.6297  0.2784
  458SOL    HW2 1416   0.614   2.113   0.307  0.2832 -0.7322  1.8447
  459SOL     OW 1417   1.350   2.956   0.141  0.0893 -0.2138 -0.2601
  459SOL    HW1 1418   1.395   3.024   0.091 -0.2608 -0.7644 -1.3500
  459SOL    HW2 1419   1.287   3.004   0.195 -0.0470  0.3402 -0.8995
  460SOL     OW 1420   0.318   1.863   0.428 -0.0399 -0.4461 -0.2391
  460SOL    HW1 1421   0.262   1.893   0.500 -1.7577  0.6776 -1.9647
  460SOL    HW2 1422   0.342   1.773   0.453  0.2072  0.2057  2.1445
  461SOL     OW 1423   0.703   2.041   0.166 -1.0491  0.6473 -0.1681
  461SOL    HW1 1424   0.705   1.948   0.143 -1.2150 -0.0069  2.1736
  461SOL    HW2 1425   0.780   2.078   0.124 -0.5222 -0.7394 -0.4728
  462SOL     OW 1426   1.051   2.639   1.413  0.1084  0.2038 -0.2360
  462SOL    HW1 1427   1.034   2.557   1.366 -0.0323  1.6469 -2.9048
  462SOL    HW2 1428   0.973   2.692   1.397 -0.2336  0.5708  2.2808
  463SOL     OW 1429   1.101   3.559   0.767 -0.1887  0.4576 -0.3836
  463SOL    HW1 1430   1.121   3.476   0.810  1.9790  0.5325 -1.1539
  463SOL    HW2 1431   1.162   3.564   0.694 -0.2465  2.7538 -0.3409
  464SOL     OW 1432   4.722   2.787   0.890 -0.0351  0.1686  0.3593
  464SOL    HW1 1433   4.633   2.752   0.896 -0.3037  1.0630  3.4975
  464SOL    HW2 1434   4.774   2.732   0.950  1.1045  0.7951 -0.0165
  465SOL     OW 1435   1.063   3.629   0.279 -0.0416  1.0608 -0.1947
  465SOL    HW1 1436   1.084   3.549   0.230  2.5978  2.1484 -0.9744
  465SOL    HW2 1437   0.968   3.640   0.267 -0.8717 -2.7375  1.2491
  466SOL     OW 1438   1.248   2.374  -0.012 -0.6130 -0.7118 -0.1229
  466SOL    HW1 1439   1.298   2.344   0.064  1.9357  0.9660 -1.0046
  466SOL    HW2 1440   1.196   2.299  -0.038  2.7601 -3.2812 -0.1521
  467SOL     OW 1441   4.520   2.222   2.027  0.0416 -0.0557 -0.3855
  467SOL    HW1 1442   4.587   2.217   1.958 -0.9091  0.4474 -1.3851
  467SOL    HW2 1443   4.457   2.154   2.004  0.0499 -0.3305  0.3812
  468SOL     OW 1444   4.993   1.792   1.522 -0.7741  0.2384  0.0771
  468SOL    HW1 1445   5.056   1.833   1.581 -1.2945  2.7635 -0.9802
  468SOL    HW2 1446   5.040   1.719   1.484  0.6772  0.5822  1.1225
  469SOL     OW 1447   0.637   2.414   0.150  0.4364 -0.9398 -0.9525
  469SOL    HW1 1448   0.625   2.360   0.072 -0.5886 -0.8447 -0.8695
  469SOL    HW2 1449   0.606   2.501   0.125 -1.8843 -1.3740  0.1377
  470SOL     OW 1450   1.044   2.313   0.648 -0.4007  0.5980  0.1185
  470SOL    HW1 1451   0.999   2.228   0.649  1.3050 -0.3538  1.0397
  470SOL    HW2 1452   0.974   2.378   0.652 -1.8266 -0.6959 -2.0720
  471SOL     OW 1453   1.169   2.983   0.773  0.2809  0.2449 -0.1479
  471SOL    HW1 1454   1.201   3.064   0.813  0.4328 -0.3983  1.0962
  471SOL    HW2 1455   1.181   2.917   0.842  1.3765 -1.0967 -1.5534
  472SOL     OW 1456   1.045   2.408   1.214 -0.3916 -0.0389  0.2340
  472SOL    HW1 1457   1.098   2.383   1.139 -1.7470  1.3286 -1.2650
  472SOL    HW2 1458   1.050   2.333   1.273  1.0194 -1.0084 -1.0457
  473SOL     OW 1459   1.887   2.493   0.261  0.3333 -0.3007  0.0742
  473SOL    HW1 1460   1.957   2.512   0.324  0.2824  0.5248 -0.1078
  473SOL    HW2 1461   1.809   2.480   0.314  0.0505  1.4904  0.1530
  474SOL     OW 1462   2.380   5.286   2.965 -0.1334 -0.2849 -0.4409
  474SOL    HW1 1463   2.337   5.276   2.880  0.1390 -0.7255 -0.5273
  474SOL    HW2 1464   2.353   5.373   2.995 -1.4312 -0.7176 -0.2908
  475SOL     OW 1465   1.621   3.221   0.448 -0.1985  0.6778  0.1791
  475SOL    HW1 1466   1.705   3.255   0.418 -0.0532  0.8292  0.7388
  475SOL    HW2 1467   1.633   3.209   0.542  0.3209 -2.4734 -0.1753
  476SOL     OW 1468   1.293   2.146   0.181 -0.3357  0.3348 -0.5936
  476SOL    HW1 1469   1.245   2.172   0.259  0.4192  2.0817 -0.6817
  476SOL    HW2 1470   1.371   2.201   0.180  0.6867 -1.0576 -1.5216
  477SOL     OW 1471   0.599   1.651   0.138 -0.2404 -0.1030  0.1180
  477SOL    HW1 1472   0.562   1.719   0.081 -0.2003 -0.5057 -0.3959
  477SOL    HW2 1473   0.604   1.692   0.224 -1.3222  0.1636  0.0682
  478SOL     OW 1474   1.583   2.854   1.427  0.0082  0.0822  0.7080
  478SOL    HW1 1475   1.504   2.826   1.381 -1.5461  2.4337  1.8246
  478SOL    HW2 1476   1.647   2.785   1.407 -3.1528 -3.7219  2.4328
  479SOL     OW 1477   1.653   3.705   1.739  0.0309  0.0946  0.4974
  479SOL    HW1 1478   1.659   3.774   1.806 -1.5782 -0.2000  1.0011
  479SOL    HW2 1479   1.679   3.625   1.785  0.1837  0.0942  0.4087
  480SOL     OW 1480   4.986   2.998   1.349 -0.7801  0.1621  0.2951
  480SOL    HW1 1481   4.950   2.999   1.437 -1.3153  1.6572  0.0912
  480SOL    HW2 1482   4.929   2.938   1.300 -1.1861  0.2216  0.6926
  481SOL     OW 1483   1.328   2.899   0.521  0.5260  0.0037 -0.0945
  481SOL    HW1 1484   1.289   2.953   0.452  1.1248  1.1114  0.4021
  481SOL    HW2 1485   1.275   2.917   0.599 -0.3324 -1.4733 -0.3189
  482SOL     OW 1486   5.459   1.642   1.730  0.2682  0.4402 -0.1613
  482SOL    HW1 1487   5.503   1.726   1.739 -0.1132  0.6539 -0.2751
  482SOL    HW2 1488   5.417   1.628   1.815  0.1738  0.4543 -0.2059
  483SOL     OW 1489   5.379   2.913   1.712 -0.0479 -0.1925  0.0389
  483SOL    HW1 1490   5.406   2.978   1.777  0.3648 -0.0229 -0.2973
  483SOL    HW2 1491   5.341   2.965   1.641  3.9070  0.1357 -2.1267
  484SOL     OW 1492   0.488   3.062   0.023 -0.5793 -0.0310  0.2562
  484SOL    HW1 1493   0.552   3.014  -0.030 -0.8737  0.0529 -0.1849
  484SOL    HW2 1494   0.419   3.086  -0.039 -0.6823  0.5216  0.5741
  485SOL     OW 1495   4.618   2.550   1.710 -0.1176  0.4344 -0.0053
  485SOL    HW1 1496   4.637   2.468   1.755 -0.2609  0.8903  0.9213
  485SOL    HW2 1497   4.674   2.615   1.755  1.9919  0.4206 -2.4172
  486SOL     OW 1498   5.516   1.909   1.689 -0.5418  0.1247 -0.5508
  486SOL    HW1 1499   5.497   1.987   1.742  0.2235 -0.4892  0.6750
  486SOL    HW2 1500   5.601   1.928   1.649  0.0092 -0.3555  0.3495
  487SOL     OW 1501   4.308   3.761   1.410 -0.2781 -0.0952 -0.0171
  487SOL    HW1 1502   4.397   3.774   1.443 -0.2123  0.0505 -0.2465
  487SOL    HW2 1503   4.251   3.790   1.481 -0.1626 -1.3081  0.6003
  488SOL     OW 1504   0.418   2.869   0.472 -0.1857  0.4237 -0.5987
  488SOL    HW1 1505   0.483   2.829   0.530 -0.9253 -0.4477 -0.3689
  488SOL    HW2 1506   0.335   2.861   0.519 -0.2868  2.9047 -0.1769
  489SOL     OW 1507   4.913   2.633   0.999 -0.1462  0.2572  0.4868
  489SOL    HW1 1508   4.995   2.682   0.987 -0.1785  0.5485  1.3801
  489SOL    HW2 1509   4.929   2.578   1.076 -0.5398 -0.2264  0.2268
  490SOL     OW 1510   1.084   3.226   0.518  0.1103 -0.2974  0.3286
  490SOL    HW1 1511   1.020   3.177   0.571 -0.1701  0.8465  1.0734
  490SOL    HW2 1512   1.155   3.245   0.579  0.4170 -0.1577 -0.0743
  491SOL     OW 1513   1.447   3.422   1.393 -0.5096  0.2696 -0.0482
  491SOL    HW1 1514   1.379   3.469   1.344 -0.4996 -0.5554 -0.8752
  491SOL    HW2 1515   1.471   3.482   1.464 -1.3735  0.9927 -0.3508
  492SOL     OW 1516   1.269   2.631   0.239  0.1907  0.6448  0.0922
  492SOL    HW1 1517   1.205   2.565   0.212 -1.0167  0.9709  1.9613
  492SOL    HW2 1518   1.216   2.707   0.264  1.5254  2.2850 -1.6936
  493SOL     OW 1519   4.855   3.272   1.288 -0.1966 -0.3159  0.2681
  493SOL    HW1 1520   4.796   3.220   1.343  0.9536 -2.1198 -0.1488
  493SOL    HW2 1521   4.942   3.237   1.306  1.0297  2.9964  1.7338
  494SOL     OW 1522   4.693   1.750   2.296 -0.4028 -0.1600  0.0330
  494SOL    HW1 1523   4.686   1.756   2.201  0.1226 -1.4281 -0.0980
  494SOL    HW2 1524   4.672   1.659   2.316 -0.1213 -0.0030  1.0989
  495SOL     OW 1525   2.259   2.682   1.718  0.1738 -0.0682  0.7951
  495SOL    HW1 1526   2.168   2.702   1.738  0.2905 -0.2103  1.4831
  495SOL    HW2 1527   2.272   2.716   1.629 -0.0270  1.6468  1.3849
  496SOL     OW 1528   5.422   1.589   2.015  0.4268 -0.5826 -0.3627
  496SOL    HW1 1529   5.426   1.679   2.047  2.0368 -1.0411  0.8955
  496SOL    HW2 1530   5.346   1.551   2.059  0.0551  0.0082 -0.4841
  497SOL     OW 1531   4.814   1.873   1.785  0.7489 -0.2877  0.0356
  497SOL    HW1 1532   4.848   1.908   1.703  1.3956 -0.4591  0.2271
  497SOL    HW2 1533   4.858   1.924   1.853 -1.4716  1.4466  0.2823
  498SOL     OW 1534   4.394   2.935   1.348  0.1602 -0.2996 -0.6616
  498SOL    HW1 1535   4.329   3.004   1.341 -0.8824 -1.2117 -0.2837
  498SOL    HW2 1536   4.426   2.940   1.438  2.5204  1.7608 -1.5063
  499SOL     OW 1537   5.113   2.461   1.277  0.3351  0.5834  0.0400
  499SOL    HW1 1538   5.159   2.412   1.209 -0.8285  0.9285 -1.0361
  499SOL    HW2 1539   5.047   2.400   1.311 -0.3940  1.0277 -0.5435
  500SOL     OW 1540   0.994   2.178   0.148 -0.1139  0.3795 -0.0699
  500SOL    HW1 1541   1.027   2.107   0.204  0.6177  1.6193  1.1108
  500SOL    HW2 1542   1.034   2.161   0.062  0.2489 -0.5023  0.2611
  501SOL     OW 1543   4.767   1.860   1.375  0.3602  0.2415 -0.8147
  501SOL    HW1 1544   4.838   1.827   1.430 -1.4640 -2.9247 -0.1070
  501SOL    HW2 1545   4.806   1.866   1.288  2.0797  0.9947 -0.0638
  502SOL     OW 1546   4.528   2.840   1.617 -0.1782 -0.0351 -0.3619
  502SOL    HW1 1547   4.596   2.774   1.630 -0.1765 -0.3468 -1.8284
  502SOL    HW2 1548   4.500   2.863   1.706  1.0325 -0.7325  0.2238
  503SOL     OW 1549   4.915   2.282   1.342  0.4140  0.0154  0.0875
  503SOL    HW1 1550   4.940   2.203   1.391 -0.5743 -0.2354  0.2227
  503SOL    HW2 1551   4.833   2.310   1.383  0.9684  1.3585  0.3035
  504SOL     OW 1552   2.131   2.975   1.678  0.8039  0.0102 -0.2411
  504SOL    HW1 1553   2.089   2.898   1.718 -0.8908  1.0565  0.1465
  504SOL    HW2 1554   2.100   2.975   1.588  0.4991  0.4105 -0.1420
  505SOL     OW 1555   0.522   2.047   0.654  0.0822 -0.2253  0.0798
  505SOL    HW1 1556   0.552   2.049   0.563 -0.7127 -0.6632 -0.2028
  505SOL    HW2 1557   0.533   1.956   0.681  0.5394 -0.0451  0.5000
  506SOL     OW 1558   1.605   2.487   0.347  0.2973 -0.2987 -0.1989
  506SOL    HW1 1559   1.587   2.432   0.423  0.1000 -0.3109 -0.2542
  506SOL    HW2 1560   1.562   2.570   0.367 -1.1258 -0.8209 -0.9935
  507SOL     OW 1561   1.074   2.169   1.327 -0.4371 -0.3261  0.3600
  507SOL    HW1 1562   1.064   2.117   1.248 -0.7398 -1.1132  0.8997
  507SOL    HW2 1563   1.167   2.162   1.350 -0.1292  0.7581 -0.4824
  508SOL     OW 1564   5.542   3.536   1.811  0.8195  0.0294  0.1652
  508SOL    HW1 1565   5.564   3.549   1.719  0.4759  0.0809  0.0896
  508SOL    HW2 1566   5.605   3.470   1.842  0.7673 -0.1813 -0.1755
  509SOL     OW 1567   1.789   3.118   1.321  0.3883  0.3301 -0.1323
  509SOL    HW1 1568   1.737   3.164   1.255  1.4225 -0.8238 -1.8544
  509SOL    HW2 1569   1.732   3.114   1.398 -1.9295 -0.4874 -1.7597
  510SOL     OW 1570   4.889   3.060   2.309 -0.1461 -0.3485 -0.0592
  510SOL    HW1 1571   4.960   3.081   2.249  0.2467 -2.0212 -0.2193
  510SOL    HW2 1572   4.809   3.080   2.260  0.1832 -0.6576 -0.7313
  511SOL     OW 1573   1.548   2.311   0.559  0.2402  0.2497 -0.0514
  511SOL    HW1 1574   1.596   2.233   0.585  0.8176  0.2957 -0.9532
  511SOL    HW2 1575   1.459   2.296   0.592  1.1089  0.7159  2.7364
  512SOL     OW 1576   3.531   5.410   2.737  0.4180  0.3519 -0.1721
  512SOL    HW1 1577   3.555   5.499   2.763  0.5883  0.0443  0.7872
  512SOL    HW2 1578   3.437   5.404   2.753 -0.1285  1.1274 -2.6407
  513SOL     OW 1579   0.862   3.137   1.275  0.3068 -0.1269 -0.2241
  513SOL    HW1 1580   0.786   3.103   1.323  0.4475  1.1127  0.9402
  513SOL    HW2 1581   0.881   3.069   1.210 -0.4188 -1.5046  0.9217
  514SOL     OW 1582   4.652   2.399   1.493 -0.1076 -0.2215 -0.6769
  514SOL    HW1 1583   4.601   2.319   1.508  1.4889 -0.9323  1.5392
  514SOL    HW2 1584   4.641   2.450   1.573  2.0010 -0.0601 -0.4265
  515SOL     OW 1585   4.917   2.159   1.086 -0.2462 -0.4809  0.1642
  515SOL    HW1 1586   5.004   2.128   1.059 -0.8416 -2.7708  0.6642
  515SOL    HW2 1587   4.932   2.205   1.168  0.3726 -1.8913  0.8687
  516SOL     OW 1588   5.332   1.935   2.019 -0.2195 -0.0670  0.0039
  516SOL    HW1 1589   5.244   1.948   2.055 -0.6311 -0.9907 -0.6262
  516SOL    HW2 1590   5.391   1.968   2.087 -0.9652 -1.7670  1.5542
  517SOL     OW 1591   1.066   1.885   1.447  0.3345 -0.0418  0.1135
  517SOL    HW1 1592   1.076   1.977   1.423  1.5091 -0.1464  0.1495
  517SOL    HW2 1593   1.108   1.878   1.533  0.3897 -0.6426  0.0423
  518SOL     OW 1594   4.323   2.979   0.113  0.1042  0.0114  0.1167
  518SOL    HW1 1595   4.260   2.912   0.087 -1.6022  1.0594  1.3521
  518SOL    HW2 1596   4.382   2.987   0.038 -1.3798 -0.8437 -1.1928
  519SOL     OW 1597   4.572   3.391   0.988 -0.1812  0.0985  0.0033
  519SOL    HW1 1598   4.657   3.392   0.945 -0.5049 -1.1171 -0.7170
  519SOL    HW2 1599   4.536   3.479   0.974 -1.1436 -0.7210 -4.0654
  520SOL     OW 1600   4.443   2.995   0.919 -0.2536  0.1286 -0.7130
  520SOL    HW1 1601   4.414   2.905   0.904 -2.3574  0.7054 -0.5652
  520SOL    HW2 1602   4.413   3.043   0.842 -0.7649  0.9909 -0.0067
  521SOL     OW 1603   5.025   2.482   1.603 -0.2600  0.2477 -0.0253
  521SOL    HW1 1604   4.999   2.523   1.520 -1.9543  1.2861  0.9563
  521SOL    HW2 1605   5.021   2.553   1.667  2.5072 -0.1777  0.7498
  522SOL     OW 1606   4.199   2.263   1.838 -0.0282 -0.0951 -0.7436
  522SOL    HW1 1607   4.229   2.175   1.817 -0.3214 -0.1901 -0.7665
  522SOL    HW2 1608   4.182   2.303   1.753  0.9869  0.3006 -0.7773
  523SOL     OW 1609   4.421   2.694   2.118 -0.2348  0.0319 -0.4423
  523SOL    HW1 1610   4.390   2.614   2.076 -0.4462 -0.6582  0.9873
  523SOL    HW2 1611   4.343   2.735   2.155 -0.1523  1.0045 -1.2954
  524SOL     OW 1612   1.164   2.682   1.691 -0.5463  0.0457  0.3366
  524SOL    HW1 1613   1.119   2.670   1.607 -1.1955  0.9499  0.5417
  524SOL    HW2 1614   1.118   2.754   1.733  0.7881  0.6741  0.7787
  525SOL     OW 1615   3.004   4.380   2.759  0.5093 -0.2248 -0.2996
  525SOL    HW1 1616   2.933   4.438   2.731 -0.6559 -1.4071  0.1133
  525SOL    HW2 1617   3.040   4.423   2.836 -0.7524 -0.3155  0.3735
  526SOL     OW 1618   1.340   2.711   1.350 -0.1078  0.0857  0.1228
  526SOL    HW1 1619   1.246   2.726   1.344 -0.2732 -0.7666  0.3753
  526SOL    HW2 1620   1.349   2.645   1.419  0.5776 -0.6655 -0.6573
  527SOL     OW 1621   4.386   3.335   1.978 -0.2175 -0.2431 -0.2950
  527SOL    HW1 1622   4.299   3.317   1.943 -0.4234 -0.7872  0.4722
  527SOL    HW2 1623   4.390   3.430   1.987 -1.1703 -0.2770  0.7352
  528SOL     OW 1624   5.048   2.064   1.504 -0.2949  0.0520  0.4190
  528SOL    HW1 1625   5.063   1.982   1.456  1.0864 -0.2910  1.3778
  528SOL    HW2 1626   5.135   2.091   1.534 -1.0284  0.5009  2.2912
  529SOL     OW 1627   5.230   3.410   1.541  0.3237  0.4191  0.2591
  529SOL    HW1 1628   5.195   3.366   1.618 -0.4396 -0.4566 -0.5645
  529SOL    HW2 1629   5.288   3.346   1.501  0.3475  0.6959 -0.1527
  530SOL     OW 1630   2.506   4.342   2.687  0.5105 -0.0109 -0.8470
  530SOL    HW1 1631   2.547   4.270   2.735 -0.5731 -0.1564 -0.0738
  530SOL    HW2 1632   2.542   4.421   2.727 -0.6656 -0.1278  0.5298
  531SOL     OW 1633   4.443   2.928   1.858 -0.1319 -0.5873  0.0317
  531SOL    HW1 1634   4.419   3.018   1.877  1.2439 -0.4404  1.2470
  531SOL    HW2 1635   4.402   2.877   1.928 -0.8934 -0.9121 -0.6413
  532SOL     OW 1636   0.954   2.915   1.122  0.3059 -0.0901  0.2067
  532SOL    HW1 1637   1.044   2.905   1.091  0.2619 -0.8079  0.2947
  532SOL    HW2 1638   0.942   2.844   1.185 -0.3198  0.0030  0.1993
  533SOL     OW 1639   1.042   2.476   0.208 -0.5623 -0.5701  0.0866
  533SOL    HW1 1640   0.967   2.473   0.267 -0.0831  0.5882  0.7887
  533SOL    HW2 1641   1.021   2.544   0.145 -0.6005 -1.0585 -0.4394
  534SOL     OW 1642   1.330   3.162   1.600 -0.0774 -0.3345 -0.1619
  534SOL    HW1 1643   1.266   3.105   1.642  0.6114 -2.7008 -2.0580
  534SOL    HW2 1644   1.301   3.168   1.509 -0.4110  2.9177  0.0478
  535SOL     OW 1645   1.202   3.591   1.543  0.0007 -0.1601  0.2423
  535SOL    HW1 1646   1.124   3.635   1.509  0.2927 -0.3797 -0.7498
  535SOL    HW2 1647   1.241   3.549   1.467  0.6277 -0.7679  0.8836
  536SOL     OW 1648   4.173   2.822   1.224  0.1767  0.7442 -0.4376
  536SOL    HW1 1649   4.157   2.913   1.200  0.6175  0.6182 -1.2245
  536SOL    HW2 1650   4.266   2.819   1.244  0.1364  0.4955 -0.2838
  537SOL     OW 1651   4.838   3.472   1.884 -0.1227 -0.0444  0.1595
  537SOL    HW1 1652   4.795   3.424   1.813 -2.0054  1.5598  0.1611
  537SOL    HW2 1653   4.875   3.549   1.841  0.6493 -0.1706  0.5834
  538SOL     OW 1654   2.869   3.954   2.869  0.2447  0.1342 -0.1197
  538SOL    HW1 1655   2.842   3.864   2.886 -0.5072  0.4817  0.6063
  538SOL    HW2 1656   2.808   4.008   2.920 -0.1058  1.1162 -1.4952
  539SOL     OW 1657   1.780   2.126   0.137  0.2585 -0.2431 -0.1218
  539SOL    HW1 1658   1.859   2.171   0.109  1.2606 -1.1913  1.0986
  539SOL    HW2 1659   1.796   2.034   0.116 -0.0490 -0.6040  1.1556
  540SOL     OW 1660   1.144   3.244   0.861 -0.9027  0.5236  0.2168
  540SOL    HW1 1661   1.197   3.242   0.941 -0.7262 -0.1263  0.0904
  540SOL    HW2 1662   1.053   3.248   0.893 -0.7831  2.5663  0.4325
  541SOL     OW 1663   4.416   3.095   2.113  0.3653  0.1717 -0.6607
  541SOL    HW1 1664   4.389   3.059   2.197  1.3367 -0.5353 -0.6349
  541SOL    HW2 1665   4.374   3.181   2.109  0.3451  0.2366  0.5670
  542SOL     OW 1666   0.976   2.944   0.545 -0.0172 -0.0853 -0.0892
  542SOL    HW1 1667   1.009   2.936   0.635  0.6785 -0.5236 -0.3730
  542SOL    HW2 1668   1.053   2.930   0.490 -0.4457  0.1269 -0.7621
  543SOL     OW 1669   4.829   2.743   1.575 -0.1135  0.3813  0.1923
  543SOL    HW1 1670   4.816   2.701   1.660  1.4465 -1.0782 -0.2311
  543SOL    HW2 1671   4.891   2.814   1.592 -0.3656  0.5537  0.3923
  544SOL     OW 1672   2.679   5.644   3.063  0.0056  0.0690  0.7239
  544SOL    HW1 1673   2.724   5.580   3.119 -0.0271 -1.4156 -0.8727
  544SOL    HW2 1674   2.738   5.656   2.988 -1.8334 -1.3587 -1.0567
  545SOL     OW 1675   1.646   3.671   1.255 -0.1249 -0.1746 -0.8721
  545SOL    HW1 1676   1.622   3.657   1.347  0.8431  0.1792 -0.5486
  545SOL    HW2 1677   1.612   3.594   1.209 -0.4794 -0.4314 -0.1906
  546SOL     OW 1678   1.556   2.193   0.859 -0.1486  0.5641  0.8093
  546SOL    HW1 1679   1.578   2.286   0.870  0.7838  0.2653  1.6719
  546SOL    HW2 1680   1.461   2.192   0.853 -0.5109  1.3260  4.2659
  547SOL     OW 1681   4.653   2.064   1.036 -0.0290  0.1614 -0.3407
  547SOL    HW1 1682   4.622   2.123   1.105 -0.5724 -0.0073 -0.4348
  547SOL    HW2 1683   4.749   2.070   1.041 -0.0732  0.9724 -0.2853
  548SOL     OW 1684   3.369   4.860   2.988  0.1240  0.0472  0.4220
  548SOL    HW1 1685   3.401   4.902   3.068  1.5989 -1.0552  0.4476
  548SOL    HW2 1686   3.401   4.770   2.994  0.5673  0.0232 -1.5839
  549SOL     OW 1687   4.679   3.144   2.156  0.4144  0.1034  0.3613
  549SOL    HW1 1688   4.721   3.127   2.071 -0.0507 -0.4321  0.2308
  549SOL    HW2 1689   4.588   3.116   2.144  0.5301 -0.7162  1.2717
  550SOL     OW 1690   2.614   4.584   2.777 -0.2874 -0.0638 -0.2841
  550SOL    HW1 1691   2.573   4.653   2.829 -1.7589 -1.0740 -0.0522
  550SOL    HW2 1692   2.671   4.631   2.716 -0.0104  1.2540  0.9263
  551SOL     OW 1693   1.494   3.736   0.092 -0.2624  0.2764  0.4933
  551SOL    HW1 1694   1.556   3.808   0.080 -0.0298  0.0495  0.3502
  551SOL    HW2 1695   1.409   3.780   0.104 -0.1699  0.5682  0.1130
  552SOL     OW 1696   4.945   3.799   1.143  0.2384  0.5115 -0.2805
  552SOL    HW1 1697   4.900   3.741   1.205  0.5538 -0.1617 -0.6577
  552SOL    HW2 1698   4.892   3.878   1.141 -0.8030 -0.1673 -0.5298
  553SOL     OW 1699   1.595   3.117   0.952  0.0022 -0.1015 -0.5444
  553SOL    HW1 1700   1.528   3.151   1.011 -1.2288 -0.7062 -1.5507
  553SOL    HW2 1701   1.660   3.076   1.009 -1.6974 -1.6456  0.3738
  554SOL     OW 1702   5.159   2.732   1.297  0.4512 -0.0241 -0.0743
  554SOL    HW1 1703   5.129   2.643   1.314  1.3590 -0.5813 -1.1677
  554SOL    HW2 1704   5.086   2.774   1.252  0.7121 -0.8855 -1.3749
  555SOL     OW 1705   1.286   1.932   0.979 -0.3378 -0.1426  0.0707
  555SOL    HW1 1706   1.268   1.966   0.891 -0.2965  0.1122  0.1610
  555SOL    HW2 1707   1.381   1.928   0.985 -0.3435 -0.8462 -0.1576
  556SOL     OW 1708   1.042   3.129   0.117  0.3566  0.2888  0.3519
  556SOL    HW1 1709   0.971   3.066   0.129  0.5049  0.1169  0.3420
  556SOL    HW2 1710   1.063   3.124   0.024  0.3703  0.3508  0.3519
  557SOL     OW 1711   1.797   2.438   1.397  0.0272  0.5195 -0.1833
  557SOL    HW1 1712   1.785   2.533   1.396  0.7045  0.6212  0.0739
  557SOL    HW2 1713   1.784   2.410   1.307 -1.0543  0.7329 -0.0976
  558SOL     OW 1714   4.390   3.204   0.272  0.1133 -0.1658 -0.2630
  558SOL    HW1 1715   4.371   3.116   0.239 -1.1790 -0.5850  1.4735
  558SOL    HW2 1716   4.485   3.213   0.262  0.0796 -1.1313 -1.8844
  559SOL     OW 1717   4.784   2.714   1.854  0.1706 -0.3409 -0.3388
  559SOL    HW1 1718   4.814   2.681   1.939 -0.5169 -0.8340 -0.2860
  559SOL    HW2 1719   4.772   2.808   1.868  1.0339 -0.2411 -0.1769
  560SOL     OW 1720   5.106   1.595   1.791 -0.3292 -0.0355 -0.0413
  560SOL    HW1 1721   5.011   1.600   1.804 -0.4371  0.2387 -0.8377
  560SOL    HW2 1722   5.133   1.686   1.782  0.3699  0.0551  2.3699
  561SOL     OW 1723   2.241   4.469   2.749  0.1420  0.0351  0.7091
  561SOL    HW1 1724   2.291   4.518   2.815  1.1680 -0.5287  0.3822
  561SOL    HW2 1725   2.306   4.446   2.683 -0.5554 -0.7474  0.2783
  562SOL     OW 1726   1.257   2.819   0.976 -0.0414  0.4753  0.4965
  562SOL    HW1 1727   1.238   2.732   0.941  0.1056  0.1382  1.2413
  562SOL    HW2 1728   1.352   2.821   0.984 -0.0147  0.8562  0.1040
  563SOL     OW 1729   0.223   1.943   0.167  0.0286  0.3351  0.0995
  563SOL    HW1 1730   0.198   1.866   0.116  1.3635 -0.0664  0.0142
  563SOL    HW2 1731   0.266   1.908   0.245 -0.8055  0.9717  0.8642
  564SOL     OW 1732   0.826   2.970   0.142 -0.4953 -0.6978  0.4640
  564SOL    HW1 1733   0.801   2.929   0.060 -0.0783 -1.0766  0.5175
  564SOL    HW2 1734   0.751   2.957   0.200 -0.5352 -0.9974  0.3441
  565SOL     OW 1735   4.936   2.657   2.077  0.4014 -0.0966 -0.3906
  565SOL    HW1 1736   4.945   2.648   2.172 -0.2728  1.1911 -0.1912
  565SOL    HW2 1737   5.002   2.597   2.041  1.1294 -0.0961  0.8909
  566SOL     OW 1738   1.497   3.683   1.502 -0.0946  0.0506 -0.1009
  566SOL    HW1 1739   1.535   3.686   1.589 -1.6864 -0.0316  0.6319
  566SOL    HW2 1740   1.483   3.775   1.478  0.2301  0.0691 -0.2238
  567SOL     OW 1741   5.047   2.330   2.200  0.6278  0.2074 -0.2947
  567SOL    HW1 1742   5.132   2.298   2.230  0.3189  0.1634  0.5411
  567SOL    HW2 1743   5.058   2.341   2.105  1.1821 -0.9669 -0.3794
  568SOL     OW 1744   1.508   2.847   1.679 -0.0316 -0.2694  0.1541
  568SOL    HW1 1745   1.462   2.764   1.692 -0.9159  0.3114  0.7922
  568SOL    HW2 1746   1.534   2.845   1.587  0.6216 -1.5785  0.3328
  569SOL     OW 1747   4.910   3.809   1.598  0.4174  0.1716  0.3022
  569SOL    HW1 1748   4.948   3.773   1.678  0.3559 -1.5562 -0.3942
  569SOL    HW2 1749   4.958   3.765   1.527 -0.9634  0.0331 -0.5913
  570SOL     OW 1750   1.501   2.908   0.813  0.4503 -0.4128  0.0525
  570SOL    HW1 1751   1.459   2.968   0.751  1.9160  0.9947  0.3584
  570SOL    HW2 1752   1.552   2.964   0.870 -0.6550 -1.6846  2.4632
  571SOL     OW 1753   0.835   2.327   0.330  0.7582 -0.3824  0.0052
  571SOL    HW1 1754   0.769   2.350   0.265 -0.6554  0.9174  1.8094
  571SOL    HW2 1755   0.895   2.270   0.283 -0.2569  0.3837 -2.3983
  572SOL     OW 1756   0.809   2.759   0.927 -0.0888 -1.2238  0.3172
  572SOL    HW1 1757   0.846   2.829   0.981 -0.8626 -1.2470  0.8959
  572SOL    HW2 1758   0.871   2.749   0.855  0.3181 -0.3249  0.5255
  573SOL     OW 1759   1.578   2.276   1.437  0.1699 -0.1005  0.6121
  573SOL    HW1 1760   1.653   2.332   1.416 -0.2398  0.2379  0.0371
  573SOL    HW2 1761   1.614   2.209   1.495  1.1661 -0.5989 -0.5455
  574SOL     OW 1762   1.625   2.894   1.125  0.5308  0.1673 -0.0197
  574SOL    HW1 1763   1.631   2.889   1.220  0.1207  1.4604  0.0937
  574SOL    HW2 1764   1.714   2.881   1.094  0.5503 -1.0420  0.4820
  575SOL     OW 1765   2.869   5.028   2.973 -0.2024  0.4775  0.0507
  575SOL    HW1 1766   2.804   5.036   2.903  0.7227 -0.4508 -0.9522
  575SOL    HW2 1767   2.953   5.042   2.929  0.3574  0.3699  1.0716
  576SOL     OW 1768   0.891   3.221   0.957  0.1355  0.2061 -0.1553
  576SOL    HW1 1769   0.815   3.162   0.963  0.1008  0.2950  0.2658
  576SOL    HW2 1770   0.859   3.305   0.988  0.8223 -0.1371  1.5548
  577SOL     OW 1771   4.832   2.621   1.328 -0.7161  0.2194 -0.2931
  577SOL    HW1 1772   4.845   2.678   1.404 -2.2998  0.7343 -0.3832
  577SOL    HW2 1773   4.793   2.542   1.365  1.7065 -0.9953 -0.1319
  578SOL     OW 1774   3.320   5.120   2.869  0.5842  0.0748  0.7027
  578SOL    HW1 1775   3.340   5.050   2.932 -0.3924  0.1132  1.0685
  578SOL    HW2 1776   3.331   5.078   2.784  0.0059 -0.5361  0.9193
  579SOL     OW 1777   1.475   3.481   0.732  0.4333 -0.5168  0.5668
  579SOL    HW1 1778   1.391   3.520   0.706  0.7416 -0.0522  0.2592
  579SOL    HW2 1779   1.531   3.556   0.750  0.4899 -0.8234  1.7489
  580SOL     OW 1780   4.590   2.724   2.344 -0.4924 -0.6343  0.6678
  580SOL    HW1 1781   4.526   2.779   2.389  0.5640  1.0419  0.2119
  580SOL    HW2 1782   4.554   2.713   2.256  1.0324  2.7200 -0.5514
  581SOL     OW 1783   4.242   3.414   0.825 -0.1160 -0.0102 -0.4288
  581SOL    HW1 1784   4.260   3.461   0.744 -0.3102  1.0147  0.1013
  581SOL    HW2 1785   4.304   3.450   0.889  0.6074 -1.3961 -0.3039
  582SOL     OW 1786   4.818   3.132   1.926  0.5204 -0.0395 -0.4516
  582SOL    HW1 1787   4.744   3.180   1.888  0.4210  0.0471 -0.1479
  582SOL    HW2 1788   4.873   3.110   1.850  1.1115  1.4821 -0.5221
  583SOL     OW 1789   1.779   2.381   1.128  0.0031 -0.1020 -0.4841
  583SOL    HW1 1790   1.727   2.398   1.050  0.1311 -1.7233 -0.9667
  583SOL    HW2 1791   1.789   2.285   1.130 -0.0579 -0.1146  1.5646
  584SOL     OW 1792   4.655   2.291   0.799  0.4498  0.0616  0.1270
  584SOL    HW1 1793   4.599   2.263   0.726 -0.5646  0.7245  0.6390
  584SOL    HW2 1794   4.640   2.225   0.867 -0.5408  0.7933  0.6510
  585SOL     OW 1795   1.607   3.512   1.015 -0.8010 -0.7405  0.3108
  585SOL    HW1 1796   1.658   3.527   0.935  0.4014  3.5242  1.6201
  585SOL    HW2 1797   1.527   3.563   1.002 -0.8894 -0.5378  1.5138
  586SOL     OW 1798   4.323   2.270   1.448 -0.0055  0.5689 -0.3531
  586SOL    HW1 1799   4.303   2.355   1.409 -1.0803  0.0798 -0.9013
  586SOL    HW2 1800   4.248   2.215   1.425  1.0002 -0.7326 -0.6226
  587SOL     OW 1801   4.828   3.312   0.665  0.4751  0.4729 -0.2554
  587SOL    HW1 1802   4.780   3.303   0.583  0.2024  0.6772 -0.1193
  587SOL    HW2 1803   4.850   3.223   0.690  0.8998  0.4324 -0.7505
  588SOL     OW 1804   1.333   2.207   1.354 -0.7593  0.2732  0.4608
  588SOL    HW1 1805   1.372   2.125   1.323 -1.8114  0.3724 -1.2297
  588SOL    HW2 1806   1.407   2.254   1.395 -0.4525 -2.1238  2.9747
  589SOL     OW 1807   1.061   1.981   1.129 -0.2046 -0.6854  0.4584
  589SOL    HW1 1808   1.143   1.944   1.097 -0.3902 -3.4019  2.7272
  589SOL    HW2 1809   1.006   1.905   1.147 -2.2448  0.9353  1.5688
  590SOL     OW 1810   0.642   2.912   0.310  0.6555  0.1589 -0.8604
  590SOL    HW1 1811   0.566   2.865   0.344 -1.2971  3.3192 -0.5171
  590SOL    HW2 1812   0.687   2.944   0.388  1.0496  0.2071 -1.1035
  591SOL     OW 1813   5.086   3.625   1.453  0.0267 -0.6589 -0.2310
  591SOL    HW1 1814   5.035   3.566   1.396  0.4324  0.5416 -1.9175
  591SOL    HW2 1815   5.151   3.568   1.494  1.2220 -1.2939 -2.7719
  592SOL     OW 1816   1.305   1.915   0.509 -0.2904 -0.2380 -0.4124
  592SOL    HW1 1817   1.310   1.847   0.442  1.9384  0.3522 -0.9345
  592SOL    HW2 1818   1.298   1.997   0.459  1.3255  0.2041  0.0403
  593SOL     OW 1819   0.824   2.469   0.615  0.1638 -0.1795  0.1547
  593SOL    HW1 1820   0.789   2.484   0.527 -0.2441 -0.5616  0.2546
  593SOL    HW2 1821   0.750   2.437   0.666  0.6682 -1.0799  0.3388
  594SOL     OW 1822   1.609   2.459   0.933  0.0371  0.1505  0.3850
  594SOL    HW1 1823   1.562   2.485   1.012 -0.4167 -0.3784  0.2884
  594SOL    HW2 1824   1.572   2.514   0.864 -0.1252  0.0500  0.3921
  595SOL     OW 1825   4.363   3.150   0.669 -0.0715 -0.5129 -0.2983
  595SOL    HW1 1826   4.295   3.146   0.602 -1.0069 -0.0515  0.6070
  595SOL    HW2 1827   4.377   3.243   0.685  0.1840 -0.6141  0.1058
  596SOL     OW 1828   0.819   3.211   0.320 -0.2733 -0.0872  0.0204
  596SOL    HW1 1829   0.787   3.177   0.404 -0.4302 -2.1164 -0.8153
  596SOL    HW2 1830   0.864   3.138   0.279 -0.7826  0.6289 -1.9778
  597SOL     OW 1831   4.459   2.294   2.278  0.3417  0.1938 -0.0217
  597SOL    HW1 1832   4.542   2.280   2.323  0.6239 -1.0730 -0.8824
  597SOL    HW2 1833   4.480   2.286   2.185 -0.8668 -1.0894 -0.2293
  598SOL     OW 1834   4.396   2.101   2.888 -0.1431 -0.2209 -0.0013
  598SOL    HW1 1835   4.394   2.171   2.823 -2.8833  1.3909  1.6070
  598SOL    HW2 1836   4.479   2.112   2.934  0.0453  1.1730 -0.6307
  599SOL     OW 1837   4.332   2.446   2.839  0.0771  0.7416  0.3370
  599SOL    HW1 1838   4.376   2.485   2.914 -0.0024 -1.0224  1.3717
  599SOL    HW2 1839   4.250   2.411   2.876  0.0032 -0.0919 -0.5735
  600SOL     OW 1840   2.582   0.924   0.150  0.3275  0.4360 -0.3347
  600SOL    HW1 1841   2.516   0.971   0.202  0.8357 -0.4692  1.1894
  600SOL    HW2 1842   2.643   0.991   0.121 -0.2528  1.0279 -0.1951
  601SOL     OW 1843   5.920   2.840   2.417  0.1207 -0.1171 -0.0398
  601SOL    HW1 1844   5.977   2.869   2.345  0.0601 -1.0488 -0.4761
  601SOL    HW2 1845   5.835   2.828   2.376  0.2488 -1.3431  0.0163
  602SOL     OW 1846   5.248   2.646   2.646 -0.0523 -0.2283  0.0926
  602SOL    HW1 1847   5.246   2.590   2.569  0.3162  0.6519 -0.5816
  602SOL    HW2 1848   5.162   2.689   2.646 -0.2267 -0.5728  0.4421
  603SOL     OW 1849   1.740   2.198   1.920 -0.1563 -0.0852 -0.2208
  603SOL    HW1 1850   1.698   2.143   1.987  1.0540 -0.2187  0.4680
  603SOL    HW2 1851   1.670   2.253   1.886 -0.9191 -0.4171  0.7658
  604SOL     OW 1852   3.078   1.005   0.454  0.2680  0.2160  0.0579
  604SOL    HW1 1853   3.119   1.046   0.378  2.5207 -2.1795 -0.1352
  604SOL    HW2 1854   2.987   0.993   0.428  0.8880 -0.1810 -2.1163
  605SOL     OW 1855   4.960   3.187   2.680 -0.5299 -0.2820  0.7960
  605SOL    HW1 1856   4.939   3.106   2.634  1.8607 -1.9783  2.4645
  605SOL    HW2 1857   4.924   3.175   2.768  0.2214  0.2808  1.1932
  606SOL     OW 1858   4.690   3.589   2.617  0.5052 -0.0529  0.0660
  606SOL    HW1 1859   4.716   3.586   2.709 -0.7467 -0.0951  0.4414
  606SOL    HW2 1860   4.716   3.504   2.583 -0.5437 -0.7179  0.8432
  607SOL     OW 1861   6.132   3.559   3.018 -0.3985 -0.0601  0.7108
  607SOL    HW1 1862   6.192   3.550   2.943  0.5203  0.9506  1.2912
  607SOL    HW2 1863   6.180   3.613   3.080 -1.5149 -0.1259  1.6589
  608SOL     OW 1864   1.899   2.479   2.185 -0.0997  0.7261  0.1471
  608SOL    HW1 1865   1.845   2.468   2.106 -0.4282  2.8759 -0.0078
  608SOL    HW2 1866   1.838   2.464   2.257 -0.4980  1.3990 -0.0332
  609SOL     OW 1867   4.215   3.576   2.474  0.4155 -0.4865 -0.3370
  609SOL    HW1 1868   4.162   3.656   2.468  2.0146  0.6621  0.1694
  609SOL    HW2 1869   4.163   3.517   2.529 -1.3374 -0.2900 -1.6945
  610SOL     OW 1870   4.464   3.724   2.583 -0.3089 -0.0859  0.1525
  610SOL    HW1 1871   4.409   3.687   2.514 -0.2765  0.9662 -0.4620
  610SOL    HW2 1872   4.544   3.671   2.580 -0.3658 -0.1443 -0.5191
  611SOL     OW 1873   2.444   0.631  -0.001  0.3450 -0.1597  0.3860
  611SOL    HW1 1874   2.458   0.710  -0.054  1.2336  0.7158  1.8712
  611SOL    HW2 1875   2.424   0.664   0.087  0.0938 -1.5878  0.8880
  612SOL     OW 1876   2.779   1.404   0.395 -0.7209 -0.4860 -0.7416
  612SOL    HW1 1877   2.851   1.356   0.436 -1.2666 -1.3619 -0.7816
  612SOL    HW2 1878   2.800   1.403   0.301  0.7455  1.8823 -0.5386
  613SOL     OW 1879   5.078   2.880   2.034 -0.5323  0.4347  0.4750
  613SOL    HW1 1880   5.030   2.959   2.011 -2.6926 -1.3419 -1.7395
  613SOL    HW2 1881   5.009   2.815   2.053  1.0076 -1.6068 -0.5305
  614SOL     OW 1882   4.079   4.216   0.427  0.2441  0.1245  0.0110
  614SOL    HW1 1883   3.993   4.242   0.462 -0.4161 -0.7332 -0.9032
  614SOL    HW2 1884   4.094   4.276   0.354  0.5146  0.4044  0.2981
  615SOL     OW 1885   4.553   2.511   2.675  0.2215  0.1204  0.3402
  615SOL    HW1 1886   4.610   2.437   2.653 -0.4154 -0.2858  0.0378
  615SOL    HW2 1887   4.477   2.471   2.717 -0.1679  0.5966  0.0940
  616SOL     OW 1888   2.102   3.450   2.472 -0.0456  0.1147 -0.2308
  616SOL    HW1 1889   2.013   3.432   2.504  0.0887  1.3700  0.9806
  616SOL    HW2 1890   2.129   3.370   2.428 -0.7016 -1.3969  1.9294
  617SOL     OW 1891   4.308   3.580   2.191 -0.3033 -0.1092 -0.0820
  617SOL    HW1 1892   4.390   3.617   2.157 -0.3814  1.0246  0.9199
  617SOL    HW2 1893   4.334   3.532   2.270 -0.7796  1.5532  1.1239
  618SOL     OW 1894   1.700   2.700   2.059  0.0343  0.1127  0.7549
  618SOL    HW1 1895   1.681   2.609   2.037 -0.2402  0.0993  1.0486
  618SOL    HW2 1896   1.703   2.745   1.974 -0.7826  0.0132  0.6682
  619SOL     OW 1897   1.796   3.065   2.458 -0.4084 -0.3554 -0.1438
  619SOL    HW1 1898   1.836   3.003   2.398  0.4620  0.7154 -0.7098
  619SOL    HW2 1899   1.758   3.011   2.527 -1.8407 -1.6401 -1.8704
  620SOL     OW 1900   4.855   3.122   2.905  0.0052 -0.0403 -0.1202
  620SOL    HW1 1901   4.766   3.112   2.939 -0.7894  0.3665 -1.9763
  620SOL    HW2 1902   4.903   3.047   2.940 -1.3512 -0.8563  0.0417
  621SOL     OW 1903   3.594   0.748   0.121 -0.2371  0.2588 -0.2333
  621SOL    HW1 1904   3.563   0.686   0.055 -0.2648 -0.4271  0.4041
  621SOL    HW2 1905   3.621   0.825   0.072 -2.4646  0.6893 -0.8515
  622SOL     OW 1906   5.237   6.017   2.585  0.2890  0.0552 -0.7693
  622SOL    HW1 1907   5.250   6.097   2.534 -1.2585  1.1047  0.3908
  622SOL    HW2 1908   5.299   6.023   2.657  0.0177  0.3286 -0.5575
  623SOL     OW 1909   2.674   0.716   0.329 -0.0064  0.4344  0.4517
  623SOL    HW1 1910   2.647   0.766   0.253 -1.4048  0.9080  1.2151
  623SOL    HW2 1911   2.621   0.636   0.325  0.1397  0.3196  0.7495
  624SOL     OW 1912   1.339   2.856   1.909 -0.6551  0.2381  0.4970
  624SOL    HW1 1913   1.245   2.867   1.925 -0.8993 -1.7548  0.5898
  624SOL    HW2 1914   1.354   2.902   1.826 -2.2860 -1.6648 -0.9473
  625SOL     OW 1915   5.774   3.287   2.443 -0.3239 -0.0886  0.1678
  625SOL    HW1 1916   5.711   3.359   2.433  1.9367  1.8618 -1.0477
  625SOL    HW2 1917   5.785   3.277   2.537 -2.3427 -0.4337  0.4073
  626SOL     OW 1918   5.906   3.622   2.193  0.2778  0.3484  0.0416
  626SOL    HW1 1919   5.812   3.608   2.181  0.1188  1.0206  0.4157
  626SOL    HW2 1920   5.946   3.537   2.174 -0.3101  0.3169 -1.1594
  627SOL     OW 1921   5.187   2.639   2.324  0.0363 -0.5994  0.1558
  627SOL    HW1 1922   5.112   2.664   2.378 -0.5938  0.5741 -1.2136
  627SOL    HW2 1923   5.249   2.711   2.335  0.3477 -0.8545  0.0984
  628SOL     OW 1924   6.027   2.627   3.081 -0.0730 -0.4665  0.6148
  628SOL    HW1 1925   6.005   2.661   2.994 -0.1667  0.6042  1.0423
  628SOL    HW2 1926   6.119   2.604   3.075  0.2844  0.9047  0.6226
  629SOL     OW 1927   1.704   3.948   1.887  0.0160  0.5672 -0.2541
  629SOL    HW1 1928   1.675   4.025   1.839 -1.2300  0.6665  0.5976
  629SOL    HW2 1929   1.786   3.975   1.929  0.3182  0.9588 -1.0674
  630SOL     OW 1930   2.994   0.371   0.200  0.3459  0.2522 -0.5312
  630SOL    HW1 1931   3.036   0.285   0.190 -0.5541 -0.1710 -0.7800
  630SOL    HW2 1932   3.059   0.433   0.167  0.7991 -0.3844 -0.8579
  631SOL     OW 1933   3.295   0.370   0.057 -0.2323  0.6689  0.3392
  631SOL    HW1 1934   3.276   0.429   0.131  2.2129  3.4174 -1.0246
  631SOL    HW2 1935   3.254   0.413  -0.018  2.4992  1.3321 -0.8811
  632SOL     OW 1936   5.620   2.698   2.363  0.2290 -0.0303 -0.3849
  632SOL    HW1 1937   5.534   2.732   2.339 -1.1986 -2.2721  1.1271
  632SOL    HW2 1938   5.675   2.716   2.287 -1.6444  1.1694 -1.5559
  633SOL     OW 1939   4.430   2.571   3.067 -0.1567  0.2096  0.2110
  633SOL    HW1 1940   4.517   2.607   3.049 -0.6612  0.5959 -1.7054
  633SOL    HW2 1941   4.376   2.648   3.084 -0.4963  0.1343 -0.4641
  634SOL     OW 1942   4.853   1.986   2.348  0.5613  0.1506 -0.3937
  634SOL    HW1 1943   4.789   1.926   2.312  1.0511 -1.1448  0.8041
  634SOL    HW2 1944   4.836   1.986   2.442  0.9089  1.5056 -0.3110
  635SOL     OW 1945   5.377   2.852   2.324  0.1648 -0.0801 -0.3864
  635SOL    HW1 1946   5.328   2.887   2.398  1.0800  0.9493 -0.2453
  635SOL    HW2 1947   5.446   2.916   2.308  1.8619 -1.7995 -0.1997
  636SOL     OW 1948   3.109   4.038   0.079  0.6986  0.3967 -0.2831
  636SOL    HW1 1949   3.077   3.948   0.066 -1.2768  0.7833  1.3652
  636SOL    HW2 1950   3.165   4.033   0.156 -2.0477  1.0047  1.9201
  637SOL     OW 1951   5.387   3.560   2.280 -0.2706  0.1261 -0.0076
  637SOL    HW1 1952   5.299   3.581   2.311 -0.0435 -0.2385  0.8881
  637SOL    HW2 1953   5.397   3.467   2.297  0.4746  0.2704  0.3311
  638SOL     OW 1954   4.322   3.585   2.845 -0.0430 -0.0657  0.3020
  638SOL    HW1 1955   4.357   3.595   2.756 -0.3948 -3.1893 -0.3180
  638SOL    HW2 1956   4.386   3.529   2.889 -0.7725 -0.0341  1.4248
  639SOL     OW 1957   1.789   2.877   2.238 -0.3474  0.8118 -0.1938
  639SOL    HW1 1958   1.777   2.800   2.184 -0.0422 -0.2602  1.2080
  639SOL    HW2 1959   1.884   2.893   2.236 -0.1921  0.1113  0.8574
  640SOL     OW 1960   3.801   1.092   0.433  0.4026 -0.5443 -0.2032
  640SOL    HW1 1961   3.760   1.010   0.460 -1.3273  0.1374 -0.6515
  640SOL    HW2 1962   3.843   1.072   0.349 -0.7053 -0.7966 -0.7138
  641SOL     OW 1963   4.843   2.972   2.558 -0.2092  0.4355 -0.7387
  641SOL    HW1 1964   4.751   2.955   2.580 -0.4007  2.6962  0.5320
  641SOL    HW2 1965   4.841   3.004   2.468 -0.1105 -3.3136 -2.2331
  642SOL     OW 1966   5.535   2.708   2.665 -0.5142  0.0787 -0.2671
  642SOL    HW1 1967   5.575   2.693   2.579 -0.4866  0.3008 -0.2915
  642SOL    HW2 1968   5.448   2.669   2.658 -0.4195 -0.1264 -0.3137
  643SOL     OW 1969   5.479   3.793   1.952 -0.5023 -0.6057  0.9441
  643SOL    HW1 1970   5.387   3.804   1.977 -0.9028  1.3923 -1.0786
  643SOL    HW2 1971   5.483   3.705   1.915 -1.7854 -0.5200  0.5215
  644SOL     OW 1972   1.989   2.762   1.738  0.3673  0.1615  0.1656
  644SOL    HW1 1973   1.929   2.803   1.800  0.3499 -0.0678  0.3021
  644SOL    HW2 1974   1.933   2.732   1.666  0.5211  1.4041 -0.4882
  645SOL     OW 1975   4.543   3.618   2.059  0.0229  0.1761 -0.1968
  645SOL    HW1 1976   4.576   3.707   2.072 -0.4284  0.2046  0.8450
  645SOL    HW2 1977   4.620   3.562   2.070  1.0919  0.5495 -4.2334
  646SOL     OW 1978   1.513   1.789   1.886 -0.1964 -0.0064 -0.2076
  646SOL    HW1 1979   1.604   1.760   1.881 -0.2138 -0.2149  0.5746
  646SOL    HW2 1980   1.463   1.708   1.901 -0.5621  0.0493 -1.0361
  647SOL     OW 1981   4.297   3.182   2.997 -0.3797 -0.2892  0.1431
  647SOL    HW1 1982   4.245   3.140   2.928 -2.0445  1.0490  0.5163
  647SOL    HW2 1983   4.323   3.266   2.960  0.4629 -0.4094  0.4324
  648SOL     OW 1984   5.271   3.641   2.746  0.1364 -0.1906  0.4655
  648SOL    HW1 1985   5.239   3.557   2.713 -0.2978 -0.5616  1.7770
  648SOL    HW2 1986   5.193   3.696   2.753  0.3687  0.2177 -0.0493
  649SOL     OW 1987   4.707   2.725   2.735 -0.3180 -0.7329 -0.3678
  649SOL    HW1 1988   4.641   2.665   2.701 -0.5252 -0.8843  0.2826
  649SOL    HW2 1989   4.758   2.673   2.797 -0.0710 -0.4163 -0.2980
  650SOL     OW 1990   5.076   1.970   2.129 -0.1871  0.4196  0.0790
  650SOL    HW1 1991   5.027   1.994   2.207  0.8366  1.4383  0.4395
  650SOL    HW2 1992   5.026   2.005   2.056 -0.3337  0.8786  0.3975
  651SOL     OW 1993   3.214   1.139   0.256  0.4887 -0.2759 -0.2445
  651SOL    HW1 1994   3.299   1.156   0.216  0.9608 -1.7079  0.0818
  651SOL    HW2 1995   3.164   1.095   0.188  0.6344 -0.9972  0.0967
  652SOL     OW 1996   3.590   0.438   0.105  0.0032  0.3255  0.0659
  652SOL    HW1 1997   3.679   0.409   0.083  0.4634  2.1606 -0.6211
  652SOL    HW2 1998   3.559   0.484   0.027 -1.5484 -0.2160  0.3230
  653SOL     OW 1999   3.035   1.020   0.063  0.1144  0.1720 -0.0974
  653SOL    HW1 2000   3.031   1.063  -0.022 -0.7449  0.1941 -0.0493
  653SOL    HW2 2001   3.040   0.927   0.043  0.0644  0.1857 -0.1719
  654SOL     OW 2002   5.172   2.111   2.764  0.5570  0.2455 -0.9002
  654SOL    HW1 2003   5.149   2.108   2.671  0.7973 -2.6446 -0.9464
  654SOL    HW2 2004   5.239   2.043   2.774 -1.4592 -1.5373  1.8598
  655SOL     OW 2005   4.968   6.061   2.618  0.2710 -0.8766  0.5239
  655SOL    HW1 2006   5.063   6.056   2.609  0.2083 -0.0776 -0.9610
  655SOL    HW2 2007   4.946   6.151   2.593 -0.7334 -0.5049  2.5792
  656SOL     OW 2008   5.563   3.039   2.261 -0.0780 -0.5821  0.1965
  656SOL    HW1 2009   5.657   3.046   2.274  0.1752 -0.7718 -1.3454
  656SOL    HW2 2010   5.533   3.130   2.255  0.2360 -0.5349 -0.7454
  657SOL     OW 2011   4.928   5.813   2.092 -0.6598  0.4377 -0.0218
  657SOL    HW1 2012   4.916   5.836   2.185  2.6140  1.0149  0.3579
  657SOL    HW2 2013   4.907   5.719   2.089 -0.7341  0.3814  1.3363
  658SOL     OW 2014   5.216   1.904   2.435  0.1590 -0.1022  0.1172
  658SOL    HW1 2015   5.191   1.977   2.492  1.6207 -1.0755  2.1208
  658SOL    HW2 2016   5.173   1.923   2.351 -2.5464  1.1190  1.6653
  659SOL     OW 2017   3.396   0.529   0.285  1.1825  0.2251  0.3362
  659SOL    HW1 2018   3.404   0.624   0.274 -0.6616  0.3710 -0.2064
  659SOL    HW2 2019   3.450   0.492   0.216  0.0672  0.9602 -0.9975
  660SOL     OW 2020   5.457   3.309   2.831  0.5424 -0.0571  0.3342
  660SOL    HW1 2021   5.500   3.394   2.842  0.6391 -0.1622  0.7933
  660SOL    HW2 2022   5.494   3.254   2.900  0.3926 -0.4387  0.1155
  661SOL     OW 2023   4.576   3.040   2.939 -0.0639  0.4180 -0.5131
  661SOL    HW1 2024   4.500   3.051   2.996 -0.0162  1.6282 -0.6762
  661SOL    HW2 2025   4.555   3.090   2.860 -1.0173 -2.8189 -2.5327
  662SOL     OW 2026   5.628   3.554   2.435  0.1968  0.1010 -0.3179
  662SOL    HW1 2027   5.610   3.616   2.364  0.0332 -0.6816 -0.9772
  662SOL    HW2 2028   5.594   3.597   2.513  0.6874  1.1332 -0.6512
  663SOL     OW 2029   5.074   2.310   1.912 -0.5661  0.1459  0.4210
  663SOL    HW1 2030   5.037   2.297   1.824  2.6654 -0.5918 -1.0141
  663SOL    HW2 2031   5.105   2.400   1.911 -0.9401  0.2825  0.9990
  664SOL     OW 2032   2.719   0.357   0.116  0.3617  0.0042 -0.1034
  664SOL    HW1 2033   2.813   0.345   0.124  0.1611 -0.2859  2.6151
  664SOL    HW2 2034   2.689   0.377   0.205 -2.3318 -1.3481 -0.6044
  665SOL     OW 2035   4.869   6.161   2.933 -0.0111 -0.1869 -0.0220
  665SOL    HW1 2036   4.849   6.222   2.862  1.2665 -1.8284 -1.9206
  665SOL    HW2 2037   4.785   6.141   2.973 -1.0048 -0.2981 -2.0570
  666SOL     OW 2038   5.308   2.343   2.715 -0.7157 -0.3544  0.2293
  666SOL    HW1 2039   5.238   2.408   2.703 -1.4240 -0.0996  4.2753
  666SOL    HW2 2040   5.263   2.267   2.752  0.9789 -0.2580  2.7228
  667SOL     OW 2041   5.387   6.267   2.775  0.0612  0.1277 -0.5824
  667SOL    HW1 2042   5.393   6.187   2.827  0.3302  0.7374  0.3666
  667SOL    HW2 2043   5.445   6.252   2.700 -0.2920 -0.7569 -0.6859
  668SOL     OW 2044   5.155   3.027   2.412  0.2870 -0.0959 -0.2492
  668SOL    HW1 2045   5.066   2.992   2.404  0.2369  0.2692 -1.4000
  668SOL    HW2 2046   5.145   3.121   2.395  0.7974  0.0703  0.3213
  669SOL     OW 2047   6.038   2.740   2.648  0.3538  0.1271 -0.3016
  669SOL    HW1 2048   6.012   2.768   2.560 -0.5555  0.7214  0.1387
  669SOL    HW2 2049   6.093   2.811   2.680  0.2237  0.1771 -0.1856
  670SOL     OW 2050   1.647   2.443   2.022  0.0019 -0.3023 -0.4573
  670SOL    HW1 2051   1.595   2.374   2.065 -0.8831 -0.3093 -1.4841
  670SOL    HW2 2052   1.655   2.413   1.932 -1.9374  1.7509 -1.3866
  671SOL     OW 2053   4.603   3.198   2.407  0.1952 -0.4360 -0.2326
  671SOL    HW1 2054   4.657   3.189   2.329  0.2145  1.6143 -0.4897
  671SOL    HW2 2055   4.525   3.145   2.388  1.0403 -1.5261 -0.8047
  672SOL     OW 2056   5.825   3.098   2.214  0.2951 -0.1659 -0.0333
  672SOL    HW1 2057   5.787   3.160   2.152 -2.8040 -1.0038  0.8415
  672SOL    HW2 2058   5.853   3.152   2.288  0.1305  0.4120 -0.3843
  673SOL     OW 2059   5.807   1.967   2.126  0.5253 -0.4583 -0.2438
  673SOL    HW1 2060   5.793   1.941   2.035  0.3525 -2.1922  0.2563
  673SOL    HW2 2061   5.902   1.958   2.139  0.5855  0.0421 -0.3153
  674SOL     OW 2062   4.723   2.248   2.379  0.2949  0.2132 -0.4247
  674SOL    HW1 2063   4.748   2.166   2.337  1.3175 -1.1606  2.5951
  674SOL    HW2 2064   4.786   2.312   2.347 -0.0318 -0.3320 -2.2257
  675SOL     OW 2065   5.545   3.119   2.997 -0.5122  0.3067  0.1347
  675SOL    HW1 2066   5.509   3.057   2.934  0.6910  0.1010 -0.3734
  675SOL    HW2 2067   5.527   3.079   3.083 -2.1811  0.6036 -0.0447
  676SOL     OW 2068   5.880   3.393   2.759  0.7688  0.1239 -0.1647
  676SOL    HW1 2069   5.965   3.399   2.803  2.4316 -2.9790 -2.4873
  676SOL    HW2 2070   5.900   3.412   2.667 -1.4293  0.9929 -0.4977
  677SOL     OW 2071   5.685   2.992   2.582  0.2566  0.4649  0.2407
  677SOL    HW1 2072   5.736   2.937   2.521 -0.4385 -0.5095  0.5230
  677SOL    HW2 2073   5.731   2.983   2.666 -0.8635 -1.1649  0.7223
  678SOL     OW 2074   3.083   4.422   0.186 -0.3505  0.4821 -0.2883
  678SOL    HW1 2075   3.066   4.391   0.097 -0.8719 -0.5838  0.1659
  678SOL    HW2 2076   3.162   4.373   0.213 -1.0773 -0.3572  0.3719
  679SOL     OW 2077   5.022   3.160   2.097 -0.4138  0.3817  0.6593
  679SOL    HW1 2078   5.068   3.243   2.085  0.1808  0.0407  0.5462
  679SOL    HW2 2079   4.947   3.165   2.038 -0.8407  1.1751  1.2606
  680SOL     OW 2080   4.880   2.593   2.898 -0.1034 -0.1757 -0.1494
  680SOL    HW1 2081   4.885   2.505   2.862 -2.7966 -0.2188 -0.5487
  680SOL    HW2 2082   4.868   2.580   2.992  0.5952 -0.1714 -0.0485
  681SOL     OW 2083   2.923   4.310  -0.038 -0.5141 -0.1599 -0.0908
  681SOL    HW1 2084   2.966   4.230  -0.008  1.2837  1.0400  0.6565
  681SOL    HW2 2085   2.959   4.326  -0.125 -1.0644 -0.2878 -0.3474
  682SOL     OW 2086   2.045   0.935   0.222 -0.7852  0.1044  0.0768
  682SOL    HW1 2087   2.101   0.996   0.271 -0.8440  0.6806 -0.5615
  682SOL    HW2 2088   2.058   0.959   0.130 -2.3171  0.4718 -0.0683
  683SOL     OW 2089   4.871   2.751   2.359 -0.1730  0.3262  0.2840
  683SOL    HW1 2090   4.891   2.837   2.321  1.1491 -0.1716 -0.1809
  683SOL    HW2 2091   4.776   2.752   2.370 -0.5448  0.8016 -2.3183
  684SOL     OW 2092   4.801   1.970   2.625 -0.5765  0.4947  0.0962
  684SOL    HW1 2093   4.742   1.917   2.678  1.3941 -1.6335  0.3479
  684SOL    HW2 2094   4.813   2.051   2.676  1.5434 -1.6067  3.3065
  685SOL     OW 2095   5.485   3.188   2.575  0.7483  0.3989 -0.0372
  685SOL    HW1 2096   5.561   3.132   2.589  1.4618  1.2981 -0.1810
  685SOL    HW2 2097   5.467   3.227   2.660  1.5234  1.4806 -0.3435
  686SOL     OW 2098   5.883   3.449   3.075 -0.2398 -0.0196 -0.0409
  686SOL    HW1 2099   5.871   3.464   3.169 -0.3455 -0.8640  0.0902
  686SOL    HW2 2100   5.966   3.491   3.054  0.5793 -1.1531  0.7728
  687SOL     OW 2101   5.782   1.862   2.404  0.4222  0.3243  0.1274
  687SOL    HW1 2102   5.798   1.906   2.321  0.2321  0.7644  0.3214
  687SOL    HW2 2103   5.862   1.875   2.454  0.5703 -0.0148 -0.0141
  688SOL     OW 2104   4.475   3.442   3.029 -0.0094  0.0897  0.1786
  688SOL    HW1 2105   4.532   3.369   3.052 -1.6374 -0.7711  1.8510
  688SOL    HW2 2106   4.488   3.506   3.099 -0.4553  0.2531  0.1204
  689SOL     OW 2107   5.169   2.900   2.976  0.1110  0.2227  0.0447
  689SOL    HW1 2108   5.088   2.851   2.969  0.6015 -0.7184  0.7710
  689SOL    HW2 2109   5.183   2.935   2.888 -1.5948  1.2873  0.1510
  690SOL     OW 2110   5.224   3.046   2.703  0.0114 -0.5583 -0.5444
  690SOL    HW1 2111   5.171   3.119   2.735  0.9391  0.1799 -0.6480
  690SOL    HW2 2112   5.210   3.044   2.609 -1.2233 -1.5174 -0.3627
  691SOL     OW 2113   5.292   2.257   2.325 -0.2195 -0.0562  0.9158
  691SOL    HW1 2114   5.329   2.330   2.375 -1.5158  1.1563  0.1521
  691SOL    HW2 2115   5.366   2.224   2.273  0.4745  0.4176  1.5739
  692SOL     OW 2116   2.160   4.186   0.414 -0.3038  0.1497 -0.3812
  692SOL    HW1 2117   2.113   4.104   0.426 -2.3178  1.1254 -1.2628
  692SOL    HW2 2118   2.183   4.188   0.321  1.0424 -0.0390 -0.0859
  693SOL     OW 2119   2.341   0.936   0.548 -0.0069  0.6272  0.1634
  693SOL    HW1 2120   2.423   0.887   0.547  0.7267  1.8269 -1.1502
  693SOL    HW2 2121   2.343   0.989   0.468 -3.3207 -1.3694 -1.5272
  694SOL     OW 2122   4.862   2.112   2.879 -0.0813 -0.1938 -0.0058
  694SOL    HW1 2123   4.945   2.082   2.915 -0.4453 -2.2838 -0.7804
  694SOL    HW2 2124   4.880   2.201   2.848  0.6927  1.0872  3.6393
  695SOL     OW 2125   4.564   5.689   2.765  0.5219 -0.2952  0.0142
  695SOL    HW1 2126   4.627   5.629   2.725  2.4145  0.9012  1.0348
  695SOL    HW2 2127   4.587   5.775   2.730  0.1632  0.3110  1.2048
  696SOL     OW 2128   5.785   2.347   2.394 -0.4867 -0.7716 -0.3366
  696SOL    HW1 2129   5.848   2.412   2.423  1.5191 -2.3426 -0.9450
  696SOL    HW2 2130   5.722   2.339   2.466 -1.6922  2.8079 -0.8163
  697SOL     OW 2131   5.663   2.763   2.947  0.4770 -0.3577 -0.0511
  697SOL    HW1 2132   5.606   2.703   2.900  0.5369  0.0339 -0.6361
  697SOL    HW2 2133   5.675   2.837   2.887 -1.7826  1.5372  1.6166
  698SOL     OW 2134   5.519   2.100   2.149 -0.0851  0.5465 -0.2551
  698SOL    HW1 2135   5.598   2.079   2.198  0.1396 -0.7020 -1.0932
  698SOL    HW2 2136   5.541   2.178   2.098  0.6198  0.1892 -0.5078
  699SOL     OW 2137   1.419   2.544   1.539  0.1231 -0.6407  0.6313
  699SOL    HW1 2138   1.487   2.476   1.542  0.3426 -0.4858 -0.5481
  699SOL    HW2 2139   1.354   2.515   1.603  0.4773 -1.6822  0.5373
  700SOL     OW 2140   5.197   3.301   2.873  0.0877  0.8969  0.2916
  700SOL    HW1 2141   5.168   3.332   2.787  2.4610  1.2379 -0.4709
  700SOL    HW2 2142   5.291   3.319   2.874  0.7517 -2.0106  1.7039
  701SOL     OW 2143   4.902   2.847   2.995 -0.5645  0.6017  0.4341
  701SOL    HW1 2144   4.843   2.810   3.061  0.9172 -1.8222  0.5359
  701SOL    HW2 2145   4.910   2.778   2.930  0.2781  1.8354 -0.8178
  702SOL     OW 2146   4.636   6.431   3.024  0.0727 -0.1816  0.1708
  702SOL    HW1 2147   4.642   6.498   3.092 -1.7449 -0.8523  1.0565
  702SOL    HW2 2148   4.719   6.437   2.977  0.4627  1.8214  1.0140
  703SOL     OW 2149   3.427   0.140   0.063  0.3289 -0.3855  0.2126
  703SOL    HW1 2150   3.368   0.213   0.081  1.5317  0.4726  0.8676
  703SOL    HW2 2151   3.375   0.078   0.013 -0.7756  0.8699 -0.2521
  704SOL     OW 2152   4.384   3.038   2.373 -0.2295 -0.1317  0.2544
  704SOL    HW1 2153   4.313   3.081   2.420 -0.3400 -0.3688  0.3074
  704SOL    HW2 2154   4.377   2.946   2.398  0.3762 -0.0886  0.6154
  705SOL     OW 2155   4.060   3.483   2.917  0.2427  0.2198  0.1684
  705SOL    HW1 2156   4.121   3.532   2.861  0.5963 -0.7596 -0.3231
  705SOL    HW2 2157   4.104   3.479   3.002  0.7095 -0.1750 -0.0861
  706SOL     OW 2158   4.698   3.619   2.880  0.2294  0.5710  0.0736
  706SOL    HW1 2159   4.608   3.647   2.902  0.5332  0.4822  1.5659
  706SOL    HW2 2160   4.754   3.678   2.931  1.1384  2.2470 -2.7066
  707SOL     OW 2161   5.445   2.942   2.810 -0.1701  0.2418  0.3708
  707SOL    HW1 2162   5.362   2.970   2.773  0.7221  1.8029 -0.5647
  707SOL    HW2 2163   5.478   2.876   2.748 -0.7833 -0.5396  0.8583
  708SOL     OW 2164   2.566   0.113   0.148  0.0087  0.2342  0.6867
  708SOL    HW1 2165   2.608   0.198   0.130  0.2319  0.2704  1.3549
  708SOL    HW2 2166   2.639   0.056   0.173 -0.2201  0.0149  0.8509
  709SOL     OW 2167   5.094   2.185   2.511  0.7318 -0.0210  0.9558
  709SOL    HW1 2168   5.048   2.258   2.470  0.1545  0.3821  2.2711
  709SOL    HW2 2169   5.181   2.186   2.471  0.6589  1.2296  0.7781
  710SOL     OW 2170   1.774   2.411   2.484 -0.3080 -0.0915  0.1744
  710SOL    HW1 2171   1.781   2.485   2.544  0.9449 -0.3104  0.3226
  710SOL    HW2 2172   1.806   2.336   2.535 -0.4783 -0.5277 -0.3520
  711SOL     OW 2173   5.336   2.636   2.914  0.6639  0.8235 -0.1395
  711SOL    HW1 2174   5.351   2.730   2.924  0.1198  1.0172 -1.0183
  711SOL    HW2 2175   5.308   2.626   2.823 -0.8396  0.0206  0.3829
  712SOL     OW 2176   3.085   1.417   0.201 -0.3486  0.6092 -0.0505
  712SOL    HW1 2177   3.053   1.334   0.237  2.0509  0.2545  1.4881
  712SOL    HW2 2178   3.125   1.392   0.117  1.3997 -0.1024  0.9237
  713SOL     OW 2179   4.937   2.449   2.439  0.2956 -0.2029  0.4766
  713SOL    HW1 2180   4.987   2.440   2.357 -2.5417 -3.0236 -1.1510
  713SOL    HW2 2181   4.889   2.531   2.428  0.7098 -0.0356 -0.2104
  714SOL     OW 2182   2.596   0.852   0.552  0.2954  0.7894 -0.5056
  714SOL    HW1 2183   2.680   0.836   0.597 -0.3648 -0.6703  0.2826
  714SOL    HW2 2184   2.596   0.791   0.478 -1.2187 -1.3505  1.1283
  715SOL     OW 2185   5.858   2.996   2.812 -0.0918 -0.3390  0.0492
  715SOL    HW1 2186   5.847   3.064   2.878  0.2755  1.6247 -1.8180
  715SOL    HW2 2187   5.953   2.990   2.800 -0.1955 -0.0489 -0.9316
  716SOL     OW 2188   5.826   2.254   2.108  0.1135 -0.3096 -0.2597
  716SOL    HW1 2189   5.813   2.159   2.106 -0.6048 -0.2192 -0.1305
  716SOL    HW2 2190   5.791   2.280   2.194 -0.3931  0.1648 -0.6080
  717SOL     OW 2191   1.987   3.568   2.821  0.2126 -0.4062 -0.2869
  717SOL    HW1 2192   1.926   3.530   2.757  1.3744 -0.3719 -1.4678
  717SOL    HW2 2193   2.066   3.514   2.814  0.2614 -0.5994  1.3782
  718SOL     OW 2194   5.661   3.565   2.905 -0.4273 -0.4909 -0.2159
  718SOL    HW1 2195   5.696   3.654   2.910  0.3002 -0.7744 -0.2545
  718SOL    HW2 2196   5.728   3.515   2.859 -1.9519 -0.5190 -2.5887
  719SOL     OW 2197   2.236   0.718   0.231  0.0630 -0.0219  0.0404
  719SOL    HW1 2198   2.210   0.804   0.266  0.9551  0.3915 -0.2987
  719SOL    HW2 2199   2.271   0.671   0.307  0.4623  0.2678  0.0382
  720SOL     OW 2200   6.009   1.912   2.559  0.1260  0.8249  0.0088
  720SOL    HW1 2201   6.075   1.981   2.558 -0.4546  1.4273  1.1226
  720SOL    HW2 2202   5.957   1.930   2.638 -0.3110 -0.6280  0.0706
  721SOL     OW 2203   5.685   3.234   2.033 -0.6116 -0.7508  0.4768
  721SOL    HW1 2204   5.604   3.284   2.039  0.9744  2.2586 -0.7059
  721SOL    HW2 2205   5.735   3.277   1.963  1.8109 -2.7363  0.8283
  722SOL     OW 2206   5.792   2.752   2.176 -0.3647 -0.4573  0.4217
  722SOL    HW1 2207   5.752   2.781   2.094  0.1382 -1.3160 -0.1376
  722SOL    HW2 2208   5.885   2.742   2.156 -0.2640 -0.8496  1.0378
  723SOL     OW 2209   2.854   0.799   0.642  0.0673  0.1954 -0.0230
  723SOL    HW1 2210   2.904   0.751   0.576 -0.6664  1.2231 -1.3886
  723SOL    HW2 2211   2.920   0.832   0.703  0.9163  0.3321 -0.9879
  724SOL     OW 2212   4.744   3.435   2.130 -0.3400  0.4138  0.3038
  724SOL    HW1 2213   4.774   3.453   2.041  0.4828 -0.5167  0.3692
  724SOL    HW2 2214   4.727   3.341   2.131 -1.0433  0.5349  0.9351
  725SOL     OW 2215   4.152   1.505   0.125  0.6983 -0.5591  0.0697
  725SOL    HW1 2216   4.170   1.591   0.163  0.7253 -0.9612  0.9948
  725SOL    HW2 2217   4.149   1.445   0.200 -1.7099 -0.9799 -0.2735
  726SOL     OW 2218   3.822   3.921   0.086 -0.2596  0.4815  0.2913
  726SOL    HW1 2219   3.741   3.881   0.054 -0.4021  0.2238  0.9522
  726SOL    HW2 2220   3.890   3.856   0.068  0.0565  1.2430 -1.5033
  727SOL     OW 2221   4.423   2.245   2.631 -0.2645  0.3637 -0.1202
  727SOL    HW1 2222   4.349   2.305   2.624 -0.2759  0.2406 -1.1311
  727SOL    HW2 2223   4.409   2.181   2.561 -0.4129 -1.0011  1.1051
  728SOL     OW 2224   1.625   3.128   1.536  0.5421  0.4751 -0.7262
  728SOL    HW1 2225   1.630   3.033   1.531  0.2173  0.4770 -1.1266
  728SOL    HW2 2226   1.540   3.145   1.578  1.5715  0.5442  1.4438
  729SOL     OW 2227   2.949   0.703   0.409 -0.6777 -0.0940  0.3200
  729SOL    HW1 2228   2.944   0.608   0.412 -0.3892 -0.2215 -1.8021
  729SOL    HW2 2229   2.858   0.733   0.411 -0.7983 -0.4523  0.1429
  730SOL     OW 2230   5.372   2.557   2.120 -0.0850  0.0084 -0.0553
  730SOL    HW1 2231   5.385   2.648   2.093 -1.7918 -0.1516 -1.6414
  730SOL    HW2 2232   5.311   2.562   2.194 -0.1589  0.1660 -0.1265
  731SOL     OW 2233   1.683   3.049   1.993  0.7120  0.6056  0.0264
  731SOL    HW1 2234   1.651   3.021   2.079  0.3845 -0.5992 -0.4738
  731SOL    HW2 2235   1.634   3.129   1.974 -0.9171 -0.3682 -0.0433
  732SOL     OW 2236   2.757   1.062   0.443 -0.6376  0.0446 -0.4073
  732SOL    HW1 2237   2.760   1.095   0.354 -2.1948 -2.3866 -1.4797
  732SOL    HW2 2238   2.668   1.026   0.452 -0.4599  0.0631  2.0701
  733SOL     OW 2239   6.210   3.218   2.821 -0.3621  0.0659 -0.5595
  733SOL    HW1 2240   6.161   3.257   2.749 -0.2970 -1.7759 -1.6590
  733SOL    HW2 2241   6.291   3.268   2.826 -0.5895  0.5320 -1.4317
  734SOL     OW 2242   5.111   3.459   2.615 -0.3683 -0.1248 -0.0063
  734SOL    HW1 2243   5.068   3.374   2.609  0.6355 -0.6563  0.0969
  734SOL    HW2 2244   5.096   3.500   2.529 -0.2458 -0.7124 -0.3124
  735SOL     OW 2245   5.569   2.445   2.857  0.1718  0.1177  0.6077
  735SOL    HW1 2246   5.557   2.383   2.929  0.0372  0.6849  1.0854
  735SOL    HW2 2247   5.490   2.498   2.858 -1.1185 -1.6086 -1.7281
  736SOL     OW 2248   4.900   3.473   2.362  0.2046 -0.0136  0.2746
  736SOL    HW1 2249   4.833   3.497   2.427 -0.7903 -1.3787 -0.2033
  736SOL    HW2 2250   4.853   3.472   2.279  1.3236  1.0753 -0.4051
  737SOL     OW 2251   3.871   0.195   0.190 -0.0679 -0.3374 -0.0201
  737SOL    HW1 2252   3.851   0.258   0.121 -0.3229 -1.0095 -0.5805
  737SOL    HW2 2253   3.966   0.195   0.196 -0.0996  0.9646  0.8256
  738SOL     OW 2254   4.759   3.342   2.571  0.3513  0.0637 -0.7924
  738SOL    HW1 2255   4.705   3.289   2.513 -0.2574  0.1061 -0.2726
  738SOL    HW2 2256   4.818   3.279   2.613 -0.8176 -0.3178  0.3252
  739SOL     OW 2257   3.238   4.099   0.493  0.0848 -0.1269  0.1154
  739SOL    HW1 2258   3.222   4.032   0.427 -1.9005 -1.2681  1.6271
  739SOL    HW2 2259   3.234   4.181   0.445 -0.2887 -0.9612 -1.3533
  740SOL     OW 2260   4.336   1.979   2.056  0.4522  0.6140  0.0667
  740SOL    HW1 2261   4.246   1.973   2.087  0.6876  2.3385  1.2161
  740SOL    HW2 2262   4.389   1.940   2.126  0.5603 -2.3372 -1.4758
  741SOL     OW 2263   5.817   3.176   3.048  0.0397  0.3726  0.7623
  741SOL    HW1 2264   5.852   3.262   3.026  0.6733  0.2590  1.2814
  741SOL    HW2 2265   5.722   3.188   3.046  0.1087  0.8525 -0.0401
  742SOL     OW 2266   4.128   1.786   2.538  0.3753  0.0398 -0.0217
  742SOL    HW1 2267   4.170   1.722   2.480 -1.2652 -0.8759 -0.2670
  742SOL    HW2 2268   4.067   1.833   2.480 -0.2592  0.0780  0.6665
  743SOL     OW 2269   5.392   3.270   2.343 -0.2898 -0.0975  0.1506
  743SOL    HW1 2270   5.297   3.258   2.350 -0.1097 -1.8852 -0.0903
  743SOL    HW2 2271   5.425   3.249   2.430  0.0078 -0.9395 -0.1602
  744SOL     OW 2272   2.908   0.422   0.450 -0.3223  0.9366  0.3630
  744SOL    HW1 2273   2.951   0.341   0.479 -3.1250 -0.5132  0.7904
  744SOL    HW2 2274   2.922   0.423   0.355  0.0537  0.1233  0.4016
  745SOL     OW 2275   5.781   3.755   2.684 -0.7005  0.2643  0.2745
  745SOL    HW1 2276   5.689   3.733   2.671 -1.0016  0.6618  1.5424
  745SOL    HW2 2277   5.782   3.802   2.768  0.9882 -1.8872  1.5525
  746SOL     OW 2278   6.338   2.843   3.030  0.0597 -0.3472  0.6370
  746SOL    HW1 2279   6.398   2.840   3.105  0.9095  1.8936  0.1334
  746SOL    HW2 2280   6.388   2.804   2.958  0.3158  0.0555  0.5938
  747SOL     OW 2281   5.613   2.286   2.620  0.8760 -0.0482 -0.5166
  747SOL    HW1 2282   5.666   2.214   2.653 -1.8755 -2.3233 -0.7038
  747SOL    HW2 2283   5.568   2.321   2.697  0.7033  0.1354 -0.6973
  748SOL     OW 2284   4.961   2.368   2.768  0.1408 -0.1639  0.0918
  748SOL    HW1 2285   4.888   2.348   2.709  0.1621  0.4905 -0.1582
  748SOL    HW2 2286   5.039   2.356   2.714  0.1231  1.5569 -0.3685
  749SOL     OW 2287   3.934   0.986   0.209 -0.3530 -0.2517 -0.5084
  749SOL    HW1 2288   4.007   0.924   0.218 -0.2970 -0.3662 -1.6410
  749SOL    HW2 2289   3.872   0.941   0.152 -1.4715 -0.2863  0.6842
  750SOL     OW 2290   5.485   3.122   1.859  0.0147 -0.1856  0.6237
  750SOL    HW1 2291   5.433   3.172   1.922  0.9661  1.6701 -0.0155
  750SOL    HW2 2292   5.576   3.138   1.885  0.3750 -0.5100 -0.4046
  751SOL     OW 2293   5.007   2.720   2.616 -0.5459  0.1013  0.2479
  751SOL    HW1 2294   4.952   2.682   2.684 -0.3383 -0.4779  0.0919
  751SOL    HW2 2295   4.951   2.784   2.572 -0.3218  1.4030  1.7683
  752SOL     OW 2296   5.361   2.831   2.046  0.1754 -0.4049 -0.5136
  752SOL    HW1 2297   5.266   2.833   2.034 -0.3233 -2.2373  2.2807
  752SOL    HW2 2298   5.376   2.875   2.129  1.7333 -0.5637 -0.6801
  753SOL     OW 2299   2.123   3.200   2.341  0.4152 -0.0788 -0.4035
  753SOL    HW1 2300   2.061   3.225   2.272  1.2308 -0.9974 -1.5236
  753SOL    HW2 2301   2.110   3.105   2.352  1.7969 -0.3594 -0.9009
  754SOL     OW 2302   4.535   3.196   2.742 -0.0839  0.2372  0.5319
  754SOL    HW1 2303   4.465   3.259   2.729 -0.6819 -0.7500 -1.4108
  754SOL    HW2 2304   4.605   3.225   2.683 -0.1496 -0.6136  0.0342
  755SOL     OW 2305   6.076   2.124   3.005 -0.1618 -0.4407  0.1202
  755SOL    HW1 2306   6.095   2.059   3.073 -1.3761  0.1485  1.0680
  755SOL    HW2 2307   5.983   2.145   3.017 -0.7086 -1.0559 -2.3887
  756SOL     OW 2308   4.700   2.281   2.675 -0.6052 -0.1695 -0.8044
  756SOL    HW1 2309   4.702   2.281   2.579  0.5946 -1.5263 -0.8222
  756SOL    HW2 2310   4.620   2.233   2.697 -0.7508 -0.0816 -1.1383
  757SOL     OW 2311   1.826   3.330   2.401 -0.0292 -0.2996 -0.4742
  757SOL    HW1 2312   1.802   3.346   2.309  1.9323 -1.6414 -1.2950
  757SOL    HW2 2313   1.817   3.235   2.412 -1.1059 -0.0556  1.0245
  758SOL     OW 2314   2.487   4.092   0.260 -0.0196  0.0249  0.1193
  758SOL    HW1 2315   2.454   4.056   0.343  0.0807  0.5066  0.3711
  758SOL    HW2 2316   2.567   4.139   0.284  0.7062 -0.9037 -0.4494
  759SOL     OW 2317   5.114   3.605   2.354 -0.1255 -0.3610 -0.4802
  759SOL    HW1 2318   5.079   3.685   2.315  0.5554  0.7048  0.9803
  759SOL    HW2 2319   5.037   3.549   2.365 -0.8537  0.6264 -0.3204
  760SOL     OW 2320   5.790   6.406   2.998 -0.2581  0.8273  0.8625
  760SOL    HW1 2321   5.756   6.350   3.068 -0.8621  1.0305  0.7393
  760SOL    HW2 2322   5.724   6.475   2.989  0.1803  1.2175  0.5972
  761SOL     OW 2323   5.488   2.084   2.990 -0.8370 -0.3135  0.6187
  761SOL    HW1 2324   5.424   2.042   2.933 -0.4285 -1.5907  1.0713
  761SOL    HW2 2325   5.535   2.012   3.031  1.8758  0.5210 -0.7467
  762SOL     OW 2326   5.110   3.288   2.355  0.1082 -0.1316  0.1601
  762SOL    HW1 2327   5.124   3.347   2.281 -0.8072  1.9449  1.5600
  762SOL    HW2 2328   5.015   3.279   2.362  0.1702 -0.1966  1.1488
  763SOL     OW 2329   2.828   1.145   0.192 -0.0628  0.1182  0.2911
  763SOL    HW1 2330   2.793   1.219   0.142 -2.3248 -0.8099  0.4074
  763SOL    HW2 2331   2.893   1.106   0.133  0.3885  1.5167 -0.1989
  764SOL     OW 2332   5.694   1.571   1.892 -0.2639 -0.5429 -0.3651
  764SOL    HW1 2333   5.696   1.513   1.816 -2.1408  1.6665 -2.2373
  764SOL    HW2 2334   5.602   1.574   1.918  0.0159  0.4827  0.5862
  765SOL     OW 2335   5.904   2.620   2.829  0.0130  0.7308  0.3493
  765SOL    HW1 2336   5.958   2.677   2.775  0.5498  1.2889  1.4412
  765SOL    HW2 2337   5.820   2.616   2.782  1.2050 -0.8748 -1.8304
  766SOL     OW 2338   2.117   2.221   2.810  0.0934 -0.0086  0.0434
  766SOL    HW1 2339   2.072   2.230   2.894 -0.6923  0.3933 -0.4128
  766SOL    HW2 2340   2.050   2.242   2.744  0.1542 -2.1812 -0.7749
  767SOL     OW 2341   4.343   2.797   2.509 -0.0616 -0.4579  0.1945
  767SOL    HW1 2342   4.400   2.830   2.579  0.2184 -0.6919  0.0783
  767SOL    HW2 2343   4.258   2.787   2.550  0.0167 -0.2547  0.4105
  768SOL     OW 2344   5.432   3.317   2.081  0.6961  0.8271 -0.5233
  768SOL    HW1 2345   5.424   3.280   2.169  1.2240 -1.6795 -1.4396
  768SOL    HW2 2346   5.343   3.316   2.046  0.7415  0.0169 -0.6483
  769SOL     OW 2347   4.666   3.983   1.060 -0.1215 -0.0420 -0.2286
  769SOL    HW1 2348   4.603   4.054   1.048 -1.0435 -1.0207 -1.4587
  769SOL    HW2 2349   4.659   3.960   1.153 -0.4738  0.8689 -0.0245
  770SOL     OW 2350   4.493   4.050   0.541 -0.5599 -0.0218 -0.5345
  770SOL    HW1 2351   4.403   4.020   0.550 -0.2275 -1.2252 -1.0327
  770SOL    HW2 2352   4.546   3.981   0.581  0.1280  0.8704  0.1535
  771SOL     OW 2353   1.445   0.268   0.067  0.1913  0.1602 -0.1451
  771SOL    HW1 2354   1.513   0.256   0.133  0.1959  0.7441 -0.0372
  771SOL    HW2 2355   1.371   0.218   0.100 -0.3811  1.7741  1.1724
  772SOL     OW 2356   4.729   4.351   1.597 -0.6803 -0.2918 -0.0560
  772SOL    HW1 2357   4.726   4.376   1.689  0.0306  1.3045 -0.4448
  772SOL    HW2 2358   4.742   4.256   1.599 -1.0662 -0.3346  1.4757
  773SOL     OW 2359   1.574   3.930   1.257  0.1945  0.5643 -0.0440
  773SOL    HW1 2360   1.642   3.980   1.211 -1.1553 -0.0814 -2.9393
  773SOL    HW2 2361   1.608   3.841   1.260  0.7945  0.8019  1.4236
  774SOL     OW 2362   4.592   4.258   0.385 -0.0461 -0.8549  0.0076
  774SOL    HW1 2363   4.541   4.194   0.434  0.8255 -0.6165  1.2702
  774SOL    HW2 2364   4.550   4.342   0.405  0.8616 -0.6418  1.1544
  775SOL     OW 2365   0.854   3.608   0.654 -0.3792 -0.3533  0.1402
  775SOL    HW1 2366   0.839   3.549   0.580 -1.4773  0.2686 -0.1672
  775SOL    HW2 2367   0.936   3.578   0.693  0.4541 -0.4281 -1.5715
  776SOL     OW 2368   5.078   3.678   1.781  0.8731 -0.1080 -0.6653
  776SOL    HW1 2369   5.145   3.738   1.749  2.2512 -2.8401 -3.3126
  776SOL    HW2 2370   5.127   3.604   1.818 -0.7187 -0.8506  0.0707
  777SOL     OW 2371   1.243   3.524   1.266 -0.3380 -0.3651  0.0757
  777SOL    HW1 2372   1.231   3.598   1.207  0.5033 -1.1695 -1.1721
  777SOL    HW2 2373   1.164   3.471   1.256 -0.5896 -0.0459  0.3644
  778SOL     OW 2374   1.439   4.229   1.359  0.5720  0.4588 -0.1685
  778SOL    HW1 2375   1.350   4.240   1.328  0.1945  1.3250  1.1238
  778SOL    HW2 2376   1.445   4.137   1.384 -0.1400  0.5060  0.2082
  779SOL     OW 2377   1.063   3.903   1.214 -0.8773  0.2386 -0.2371
  779SOL    HW1 2378   1.041   3.839   1.147 -2.1616 -0.2008  0.5620
  779SOL    HW2 2379   0.979   3.925   1.255 -0.5366  2.6644 -0.6683
  780SOL     OW 2380   4.260   4.328   0.618  0.3868 -0.4640  0.4304
  780SOL    HW1 2381   4.232   4.270   0.547 -1.0064 -0.5094  0.9868
  780SOL    HW2 2382   4.226   4.414   0.594 -0.1270 -0.4859  1.0455
  781SOL     OW 2383   0.872   4.258   0.547  0.5703  0.1163  0.0032
  781SOL    HW1 2384   0.839   4.333   0.497  2.1051  0.9112  0.1138
  781SOL    HW2 2385   0.871   4.186   0.484 -0.5748  0.3008 -0.2113
  782SOL     OW 2386   1.418   4.517   1.767 -0.7832 -0.0494 -0.4920
  782SOL    HW1 2387   1.482   4.500   1.836 -0.3840 -0.4372 -0.9569
  782SOL    HW2 2388   1.342   4.464   1.791 -0.7382  0.0059 -0.2241
  783SOL     OW 2389   0.816   3.915   0.962  0.0049 -0.0380 -0.0283
  783SOL    HW1 2390   0.755   3.885   1.029 -1.3768  1.1875 -0.7024
  783SOL    HW2 2391   0.811   4.010   0.964  0.9345  0.0577 -0.9807
  784SOL     OW 2392   1.464   4.550   0.854  0.8477  0.0259  0.2119
  784SOL    HW1 2393   1.435   4.581   0.768 -0.1139  1.2598  0.9595
  784SOL    HW2 2394   1.501   4.627   0.897 -0.8379 -0.0029  1.8053
  785SOL     OW 2395   4.753   4.048   1.623 -0.0366  0.3349 -0.2088
  785SOL    HW1 2396   4.725   4.045   1.715  0.4409 -1.7177 -0.0752
  785SOL    HW2 2397   4.816   3.977   1.615  0.2654  0.7512 -2.0458
  786SOL     OW 2398   1.111   4.002   0.425 -0.7929 -0.1464  0.4274
  786SOL    HW1 2399   1.170   4.077   0.432  0.4568 -1.2439  3.1500
  786SOL    HW2 2400   1.167   3.930   0.396 -1.5707 -0.4829 -0.2870
  787SOL     OW 2401   1.623   4.177   1.755  0.1675 -0.2680 -0.1907
  787SOL    HW1 2402   1.532   4.199   1.741  0.1071 -1.1396 -1.3216
  787SOL    HW2 2403   1.648   4.127   1.677  0.6848 -2.8403  1.4855
  788SOL     OW 2404   0.818   3.464   0.436  0.5407  0.1809  0.2699
  788SOL    HW1 2405   0.832   3.381   0.389  0.9709  0.7576 -0.6557
  788SOL    HW2 2406   0.789   3.525   0.369  1.9885  1.2588  0.5686
  789SOL     OW 2407   4.647   3.878   2.048 -0.4012 -0.0854  0.4489
  789SOL    HW1 2408   4.737   3.907   2.034  0.5628 -1.0978  3.7658
  789SOL    HW2 2409   4.595   3.933   1.989  2.3876 -0.1839 -2.3896
  790SOL     OW 2410   1.381   4.506   1.440  0.4841  0.1264  0.0711
  790SOL    HW1 2411   1.427   4.422   1.440  1.4963  0.6669  0.0364
  790SOL    HW2 2412   1.312   4.495   1.505  0.8680 -0.5944  0.3718
  791SOL     OW 2413   4.809   3.448   0.910 -0.4104 -0.5120 -0.3967
  791SOL    HW1 2414   4.805   3.409   0.823 -1.0685  1.6001 -1.3641
  791SOL    HW2 2415   4.871   3.521   0.901 -3.4487  2.2909 -0.2419
  792SOL     OW 2416   4.309   3.591   0.268 -0.2410  0.1018 -0.1182
  792SOL    HW1 2417   4.359   3.642   0.205  2.5722 -0.8477  1.1772
  792SOL    HW2 2418   4.350   3.608   0.352 -3.2433  0.5448  1.4112
  793SOL     OW 2419   4.891   4.066   0.914 -0.0903  0.1407 -0.2587
  793SOL    HW1 2420   4.819   4.044   0.973  0.5353  0.3807  0.6236
  793SOL    HW2 2421   4.858   4.047   0.827 -0.9843 -0.3894  0.1822
  794SOL     OW 2422   3.759   4.300   1.616 -0.4181  0.6121  0.1330
  794SOL    HW1 2423   3.717   4.230   1.567  0.6158  0.1490 -0.1126
  794SOL    HW2 2424   3.823   4.256   1.672 -1.7620  1.0820  2.1714
  795SOL     OW 2425   4.902   3.532   1.226  0.2458 -0.1650 -0.0505
  795SOL    HW1 2426   4.847   3.540   1.148 -1.3596  0.6104  1.0911
  795SOL    HW2 2427   4.876   3.449   1.265  1.5593 -0.8973 -0.6841
  796SOL     OW 2428   0.622   3.706   0.818 -0.1729  0.6151  0.4804
  796SOL    HW1 2429   0.652   3.649   0.748 -0.6921 -1.6918  2.0357
  796SOL    HW2 2430   0.693   3.770   0.829  0.9360 -0.3753 -0.6194
  797SOL     OW 2431   1.646   4.359   1.127 -0.3871 -0.1624 -0.0408
  797SOL    HW1 2432   1.627   4.291   1.192  2.9225  0.0480  1.3702
  797SOL    HW2 2433   1.708   4.318   1.068 -1.2223  0.5377 -1.4463
  798SOL     OW 2434   0.524   4.303   0.406  0.1607  0.2161 -0.2314
  798SOL    HW1 2435   0.433   4.285   0.382  0.6117 -0.2683 -1.7042
  798SOL    HW2 2436   0.572   4.292   0.324  1.4844  0.9401  0.4292
  799SOL     OW 2437   5.326   3.746   1.479  0.0595  0.3477  0.6161
  799SOL    HW1 2438   5.304   3.789   1.561 -0.4072  1.3694 -0.0277
  799SOL    HW2 2439   5.242   3.714   1.446 -0.0475  1.5702 -0.3559
  800SOL     OW 2440   1.243   4.001   1.440  0.0696 -0.1404 -0.9079
  800SOL    HW1 2441   1.188   4.034   1.510 -0.0902 -1.0369 -0.6029
  800SOL    HW2 2442   1.185   3.946   1.387 -0.0243  1.1805 -2.2403
  801SOL     OW 2443   4.711   4.401   0.933 -0.1304  0.6110 -0.6534
  801SOL    HW1 2444   4.660   4.337   0.883 -0.3601 -0.4029  0.8132
  801SOL    HW2 2445   4.782   4.426   0.874 -1.1481  0.5091 -1.9756
  802SOL     OW 2446   5.271   3.479   1.879 -0.3116  0.6040 -0.2376
  802SOL    HW1 2447   5.364   3.488   1.855  0.3608 -0.3845  1.8175
  802SOL    HW2 2448   5.245   3.394   1.843 -0.3922  0.7947 -0.6439
  803SOL     OW 2449   4.612   3.810   1.540  0.3305  0.4049  0.9491
  803SOL    HW1 2450   4.573   3.769   1.618  1.2223 -1.0055  0.6974
  803SOL    HW2 2451   4.706   3.794   1.550  0.5444  1.0352  0.0381
  804SOL     OW 2452   4.568   3.972   1.317 -0.4557  0.2262  0.4797
  804SOL    HW1 2453   4.536   4.042   1.374  0.0827  0.4529  0.5116
  804SOL    HW2 2454   4.600   3.905   1.377  1.5380  1.1180  0.4875
  805SOL     OW 2455   0.860   4.394   0.934  0.1081  0.0937  0.5097
  805SOL    HW1 2456   0.827   4.317   0.888  3.4203 -0.6975 -0.8290
  805SOL    HW2 2457   0.886   4.455   0.865 -1.2235  1.9163  1.5268
  806SOL     OW 2458   4.690   3.792   0.899  0.0162  0.1461 -0.0411
  806SOL    HW1 2459   4.784   3.775   0.897 -0.1063 -1.3806  2.7356
  806SOL    HW2 2460   4.677   3.854   0.971 -1.1097  0.3462 -0.3865
  807SOL     OW 2461   1.655   4.151   0.907 -0.0271  0.5705  0.2696
  807SOL    HW1 2462   1.658   4.082   0.973  0.7108  1.6412  1.3946
  807SOL    HW2 2463   1.694   4.112   0.829 -2.7950 -1.4152 -0.3090
  808SOL     OW 2464   1.267   3.861   0.092 -0.6036  0.0972 -0.3792
  808SOL    HW1 2465   1.254   3.889   0.183  0.7779  1.0600 -0.4464
  808SOL    HW2 2466   1.178   3.854   0.056 -1.2305 -1.3786  1.3196
  809SOL     OW 2467   4.431   4.143   1.086  0.0365 -0.0072 -0.1864
  809SOL    HW1 2468   4.378   4.083   1.138 -0.4328  0.5202 -0.0524
  809SOL    HW2 2469   4.450   4.215   1.146  1.7539 -0.6410  0.1055
  810SOL     OW 2470   5.266   4.067   1.895  0.1290 -0.0815  0.0389
  810SOL    HW1 2471   5.298   4.101   1.978  0.5244 -1.4587  0.4742
  810SOL    HW2 2472   5.271   3.971   1.904 -1.7462 -0.3062 -0.8095
  811SOL     OW 2473   1.544   3.988   1.531  0.1925 -0.4261 -0.0068
  811SOL    HW1 2474   1.538   3.962   1.439 -0.3915 -0.7002  0.1050
  811SOL    HW2 2475   1.455   3.980   1.564  0.5691 -1.3218  0.8495
  812SOL     OW 2476   4.118   4.188   1.225  0.4631  0.4781  0.2237
  812SOL    HW1 2477   4.145   4.097   1.209  0.1849  0.5093 -0.4490
  812SOL    HW2 2478   4.095   4.222   1.139 -1.7446  0.4422  0.7197
  813SOL     OW 2479   3.901   3.967   1.503  0.4130  0.5321 -0.3406
  813SOL    HW1 2480   3.936   3.887   1.542 -1.4497  0.4041  1.2156
  813SOL    HW2 2481   3.970   4.032   1.517  1.3945 -0.4502 -0.4072
  814SOL     OW 2482   0.791   4.482   0.399 -0.3763  0.1124  0.2264
  814SOL    HW1 2483   0.763   4.417   0.335 -0.6798  0.7335 -0.2812
  814SOL    HW2 2484   0.715   4.541   0.408  0.4449  1.3237 -0.5193
  815SOL     OW 2485   1.473   4.556   1.201  0.2944  0.1240  0.1133
  815SOL    HW1 2486   1.443   4.530   1.288  1.5548 -0.7202  0.3195
  815SOL    HW2 2487   1.537   4.489   1.176  0.6884  0.8925 -1.0420
  816SOL     OW 2488   4.738   4.286   1.199 -0.3378 -0.0477  0.1512
  816SOL    HW1 2489   4.647   4.312   1.214  0.0863  1.7368 -0.0964
  816SOL    HW2 2490   4.759   4.320   1.112  1.4813  2.5512  1.4531
  817SOL     OW 2491   3.477   5.930   2.711 -0.3408 -0.4448  0.5003
  817SOL    HW1 2492   3.530   5.971   2.780  0.0229 -0.4512  0.2270
  817SOL    HW2 2493   3.469   5.998   2.644  2.9039 -1.7281 -1.4082
  818SOL     OW 2494   1.264   3.797   0.354 -0.5006  0.0728 -0.3633
  818SOL    HW1 2495   1.224   3.729   0.299  1.6030 -1.3904 -0.2133
  818SOL    HW2 2496   1.290   3.751   0.434 -0.2537  1.3892  0.3418
  819SOL     OW 2497   1.438   3.774   0.913  0.1131  0.4361 -0.8830
  819SOL    HW1 2498   1.406   3.816   0.993  0.4578 -0.8737 -0.0246
  819SOL    HW2 2499   1.382   3.808   0.844 -1.6795 -0.0892  0.2404
  820SOL     OW 2500   4.624   4.252   0.709  0.1182  0.0512  0.2319
  820SOL    HW1 2501   4.692   4.188   0.687  0.5387  0.8260 -0.8309
  820SOL    HW2 2502   4.541   4.205   0.697  0.3743  0.0386 -1.8334
  821SOL     OW 2503   0.861   3.899   0.671 -0.6427  0.3621  0.0287
  821SOL    HW1 2504   0.827   3.811   0.656 -1.6764  0.0713  3.3711
  821SOL    HW2 2505   0.848   3.915   0.765  0.5917  3.6403 -0.2161
  822SOL     OW 2506   1.806   4.045   1.579 -0.5377 -0.5568  0.0880
  822SOL    HW1 2507   1.875   3.982   1.556  0.6239 -0.7498  3.4789
  822SOL    HW2 2508   1.725   3.996   1.568  0.2358 -2.1280  0.9536
  823SOL     OW 2509   5.215   3.931   1.642 -0.0342  0.1398  0.3736
  823SOL    HW1 2510   5.235   4.017   1.678  0.5584  0.0688  0.2231
  823SOL    HW2 2511   5.197   3.947   1.550 -0.3547  0.1615  0.4403
  824SOL     OW 2512   3.923   4.161   0.174 -0.1931 -0.3306 -0.3879
  824SOL    HW1 2513   3.994   4.144   0.236  0.0442 -1.0835 -0.8446
  824SOL    HW2 2514   3.899   4.074   0.142 -0.6798  0.0042 -0.9362
  825SOL     OW 2515   0.110   3.776   0.058 -0.5379  0.4130  0.3749
  825SOL    HW1 2516   0.178   3.843   0.065 -2.4564  2.4691  0.4034
  825SOL    HW2 2517   0.080   3.782  -0.033 -0.3531 -0.8354  0.2149
  826SOL     OW 2518   4.662   4.175   1.896  0.2615 -0.2317  0.0643
  826SOL    HW1 2519   4.643   4.255   1.846  0.0632 -0.1200  0.3187
  826SOL    HW2 2520   4.576   4.136   1.913  0.2689  0.1111  0.9422
  827SOL     OW 2521   1.103   4.242   0.687  0.4268  0.0477  0.5922
  827SOL    HW1 2522   1.069   4.170   0.740  0.7395 -0.8353 -0.3785
  827SOL    HW2 2523   1.037   4.254   0.618 -0.0217  1.2473  1.1973
  828SOL     OW 2524   1.814   4.477   1.800  0.5256  0.0095  0.2611
  828SOL    HW1 2525   1.885   4.452   1.740 -0.8451  0.5073 -1.6741
  828SOL    HW2 2526   1.735   4.442   1.759 -0.5994  1.3962  1.1575
  829SOL     OW 2527   1.816   3.763   1.039  0.2085 -0.2083  0.2944
  829SOL    HW1 2528   1.759   3.708   1.093 -0.1416 -0.8632 -0.7135
  829SOL    HW2 2529   1.794   3.740   0.949 -0.6351  2.2767 -0.2081
  830SOL     OW 2530   0.484   3.804   0.449  0.4514 -0.4040 -0.5867
  830SOL    HW1 2531   0.484   3.881   0.393  0.1309 -0.8915 -1.2787
  830SOL    HW2 2532   0.493   3.730   0.388 -1.0702 -1.0136 -0.1234
  831SOL     OW 2533   4.470   4.350   1.265 -0.2009 -0.1571  0.2304
  831SOL    HW1 2534   4.473   4.441   1.236 -1.0342 -0.4661 -0.9224
  831SOL    HW2 2535   4.435   4.354   1.354 -1.0659  0.5906 -0.1345
  832SOL     OW 2536   1.321   3.890   1.108  0.2869 -0.0998  0.0160
  832SOL    HW1 2537   1.239   3.883   1.158 -0.0443 -0.6247 -0.5912
  832SOL    HW2 2538   1.382   3.934   1.168 -0.6319  0.9083  0.2445
  833SOL     OW 2539   1.030   3.344   1.281  0.3146  0.0901 -0.1611
  833SOL    HW1 2540   0.984   3.414   1.235 -1.8923  0.7578  2.8103
  833SOL    HW2 2541   0.974   3.267   1.270 -0.4588  0.3526  1.5884
  834SOL     OW 2542   0.835   4.040   0.411  0.1619 -0.2938 -0.3724
  834SOL    HW1 2543   0.926   4.041   0.381  0.7742  2.4894  1.2155
  834SOL    HW2 2544   0.836   3.983   0.488  0.7284  0.1837 -0.0136
  835SOL     OW 2545   1.363   4.198   1.017 -0.5401  0.1981 -0.8854
  835SOL    HW1 2546   1.304   4.201   1.092 -0.0950  0.1322 -0.5260
  835SOL    HW2 2547   1.374   4.105   0.999 -1.9647  0.2373 -2.1027
  836SOL     OW 2548   1.036   3.720   0.993  0.2335 -0.0048  0.0110
  836SOL    HW1 2549   1.055   3.674   0.911 -0.0951  0.2181 -0.1911
  836SOL    HW2 2550   0.965   3.780   0.971 -0.6487 -0.7649  0.7314
  837SOL     OW 2551   2.641   1.959   0.113  0.5623  0.3257 -0.2853
  837SOL    HW1 2552   2.716   2.019   0.105  1.6004 -1.1522 -3.0788
  837SOL    HW2 2553   2.671   1.878   0.073 -2.5750 -0.3311 -1.6076
  838SOL     OW 2554   4.167   4.219   2.579  0.2542  0.2816  0.0263
  838SOL    HW1 2555   4.237   4.153   2.578 -1.3840 -1.5793  0.5959
  838SOL    HW2 2556   4.087   4.168   2.588 -1.0534  2.4372  1.5658
  839SOL     OW 2557   5.687   4.164   2.209  0.6239 -0.4319  0.0024
  839SOL    HW1 2558   5.722   4.102   2.146  0.5534  0.0816 -0.5428
  839SOL    HW2 2559   5.751   4.235   2.211  0.7385 -0.5384  0.6775
  840SOL     OW 2560   6.034   3.914   2.722 -0.2120 -0.7145  0.2147
  840SOL    HW1 2561   5.967   3.873   2.668 -0.0180 -0.0104 -0.5810
  840SOL    HW2 2562   6.019   4.008   2.712  0.4487 -0.5626  0.5915
  841SOL     OW 2563   3.961   1.774   0.183 -0.0684 -0.4688 -0.1201
  841SOL    HW1 2564   3.932   1.762   0.092  0.8462 -0.8009 -0.3805
  841SOL    HW2 2565   3.962   1.686   0.220  0.5583 -0.4715 -0.1181
  842SOL     OW 2566   4.373   4.530   2.425  0.1198 -0.1656 -0.7655
  842SOL    HW1 2567   4.395   4.621   2.447  0.2402  0.0005 -1.5584
  842SOL    HW2 2568   4.286   4.516   2.463  0.5078 -0.0352  0.2126
  843SOL     OW 2569   4.913   3.836   2.538 -0.3650 -0.0196  0.1918
  843SOL    HW1 2570   4.895   3.930   2.531 -0.9011 -0.0179  1.3473
  843SOL    HW2 2571   4.838   3.801   2.586 -0.5733 -1.1830 -0.9370
  844SOL     OW 2572   5.241   4.207   2.604  0.4935 -0.1145  0.1432
  844SOL    HW1 2573   5.210   4.225   2.693 -0.5349 -1.5846  0.1150
  844SOL    HW2 2574   5.170   4.158   2.563 -0.2501  2.7531 -2.4429
  845SOL     OW 2575   5.382   3.929   2.815  0.8707 -1.1616 -0.3437
  845SOL    HW1 2576   5.306   3.875   2.795  1.1334 -1.4574 -0.5413
  845SOL    HW2 2577   5.455   3.886   2.771  1.3720 -1.5615  0.8555
  846SOL     OW 2578   4.184   4.459   2.700  0.6929  0.0401 -0.1651
  846SOL    HW1 2579   4.104   4.436   2.747  0.4350  1.6742  0.2673
  846SOL    HW2 2580   4.196   4.389   2.636 -1.2964 -0.0556 -0.4862
  847SOL     OW 2581   5.151   3.409   2.111  0.6666  0.2297  0.5654
  847SOL    HW1 2582   5.174   3.443   2.025 -2.5364  0.2730 -0.4086
  847SOL    HW2 2583   5.138   3.486   2.165  2.4206  0.2079  1.0743
  848SOL     OW 2584   4.718   4.090   2.861  0.2573  0.1673  0.0616
  848SOL    HW1 2585   4.754   4.055   2.943  0.2894  0.5102  0.1964
  848SOL    HW2 2586   4.692   4.012   2.811 -0.5139 -0.0318  0.7367
  849SOL     OW 2587   5.886   4.493   2.620  0.1261  0.2976  0.1474
  849SOL    HW1 2588   5.831   4.530   2.551 -0.5777 -0.0478  0.5140
  849SOL    HW2 2589   5.855   4.403   2.630 -0.2807  0.5623  1.4203
  850SOL     OW 2590   5.941   3.863   2.306  0.2050 -0.6428 -0.2010
  850SOL    HW1 2591   5.889   3.907   2.238 -1.6185 -2.7700 -0.2852
  850SOL    HW2 2592   5.937   3.770   2.282 -0.5224 -1.4786  2.7900
  851SOL     OW 2593   5.009   3.650   2.085  0.2618 -0.1454  0.1865
  851SOL    HW1 2594   4.955   3.653   2.006  0.3554 -0.2712  0.1175
  851SOL    HW2 2595   4.955   3.690   2.153 -0.0580 -0.5970  0.1973
  852SOL     OW 2596   3.592   2.073   0.020 -0.1248 -0.2491  0.3541
  852SOL    HW1 2597   3.623   2.091   0.109  1.4982  0.0476 -0.2415
  852SOL    HW2 2598   3.608   2.154  -0.029  2.4288 -1.5092 -1.0764
  853SOL     OW 2599   4.779   4.056   2.303 -0.4248 -0.3945  0.5520
  853SOL    HW1 2600   4.720   4.097   2.366 -0.2250  1.6721 -0.4939
  853SOL    HW2 2601   4.759   4.100   2.220 -0.0546 -2.3784 -0.6543
  854SOL     OW 2602   4.460   3.729   1.773  0.1764 -0.3243 -0.0874
  854SOL    HW1 2603   4.385   3.677   1.746  0.1431 -1.1159  1.4344
  854SOL    HW2 2604   4.508   3.673   1.834  0.9988  0.8514  0.3949
  855SOL     OW 2605   5.615   3.701   2.188  0.1734 -0.1215  0.0189
  855SOL    HW1 2606   5.552   3.629   2.178  0.0091 -0.0881  0.7222
  855SOL    HW2 2607   5.594   3.762   2.118  0.3362 -0.7734 -0.6122
  856SOL     OW 2608   2.257   1.997  -0.034 -0.3250  0.1994 -0.7415
  856SOL    HW1 2609   2.248   1.967   0.057  1.9901  0.8847 -0.2177
  856SOL    HW2 2610   2.321   1.937  -0.073 -0.4394  0.6040 -1.5858
  857SOL     OW 2611   2.752   1.411   0.112  0.0629 -0.1801 -0.0880
  857SOL    HW1 2612   2.816   1.434   0.045  0.0453 -0.0632 -0.0665
  857SOL    HW2 2613   2.685   1.479   0.104  0.5178  0.3722  0.6598
  858SOL     OW 2614   5.395   3.826   2.395  0.0504 -0.0111  0.2027
  858SOL    HW1 2615   5.415   3.755   2.334 -2.1014 -0.5283  0.0290
  858SOL    HW2 2616   5.330   3.880   2.350  0.2941  1.0310  1.0599
  859SOL     OW 2617   6.133   4.283   2.788  0.1681 -0.6324 -0.0430
  859SOL    HW1 2618   6.216   4.269   2.742  0.6129 -1.0027  0.8370
  859SOL    HW2 2619   6.066   4.253   2.727  0.5628  0.9473 -1.3089
  860SOL     OW 2620   4.630   3.929   2.631  0.4161  0.7598 -0.1162
  860SOL    HW1 2621   4.573   3.854   2.616  0.9441  0.1986  0.6001
  860SOL    HW2 2622   4.591   4.000   2.580 -0.1047  0.0069 -0.7822
  861SOL     OW 2623   3.163   1.835   0.015 -0.2153  0.4035  0.2168
  861SOL    HW1 2624   3.250   1.873   0.029 -0.3226  1.0661 -0.8369
  861SOL    HW2 2625   3.168   1.795  -0.072 -0.9916  0.5299  0.1109
  862SOL     OW 2626   3.266   2.164  -0.020  0.5110  0.0505  0.3140
  862SOL    HW1 2627   3.349   2.116  -0.024  0.6969  0.3643  0.3733
  862SOL    HW2 2628   3.233   2.148   0.068  0.0841 -0.7748  0.0174
  863SOL     OW 2629   4.960   4.140   2.559 -0.1912 -0.4827 -0.0275
  863SOL    HW1 2630   4.985   4.208   2.496 -1.0118 -2.1605 -2.3019
  863SOL    HW2 2631   4.927   4.189   2.634  0.2285  1.6348 -1.1324
  864SOL     OW 2632   2.160   1.386   0.243 -0.4244 -0.2127  0.3185
  864SOL    HW1 2633   2.187   1.461   0.295  1.5419  0.2349 -1.2434
  864SOL    HW2 2634   2.113   1.424   0.169 -1.9796 -0.7524  0.9832
  865SOL     OW 2635   5.079   4.439   2.741 -0.4200 -0.3096  0.1992
  865SOL    HW1 2636   4.991   4.401   2.734  0.6557 -3.0654  0.2617
  865SOL    HW2 2637   5.119   4.391   2.813  0.6768  1.9784  1.1872
  866SOL     OW 2638   4.258   3.849   2.811 -0.1294 -0.0834  0.8495
  866SOL    HW1 2639   4.275   3.762   2.847 -0.0156 -1.0277 -1.3803
  866SOL    HW2 2640   4.174   3.840   2.766  0.3280  0.7096 -0.1782
  867SOL     OW 2641   1.842   3.938   2.426  0.0197  0.1032 -0.3852
  867SOL    HW1 2642   1.882   3.860   2.465  0.3169 -0.4729 -1.7910
  867SOL    HW2 2643   1.755   3.909   2.398  0.4969  0.0000 -1.7879
  868SOL     OW 2644   1.485   3.971   2.054 -0.0805  0.1478  0.6369
  868SOL    HW1 2645   1.569   3.967   2.008 -0.2048  2.0201  0.1771
  868SOL    HW2 2646   1.423   3.932   1.993  0.0225  1.2041 -0.1761
  869SOL     OW 2647   4.497   4.199   2.722  0.8011  0.1096 -0.6817
  869SOL    HW1 2648   4.576   4.170   2.768 -0.6090  1.0925  2.6936
  869SOL    HW2 2649   4.463   4.270   2.777 -2.1194  0.1143 -2.3190
  870SOL     OW 2650   5.682   3.847   2.932  0.0300 -0.2009 -0.0097
  870SOL    HW1 2651   5.704   3.861   3.024 -2.7582  0.8725  0.5696
  870SOL    HW2 2652   5.679   3.935   2.894 -2.5531 -0.2725 -0.1340
  871SOL     OW 2653   4.166   4.071   2.926  0.1556 -0.1592  0.0264
  871SOL    HW1 2654   4.194   4.006   2.861 -0.2717  1.2546 -1.6598
  871SOL    HW2 2655   4.242   4.127   2.938  0.3175 -0.5695  0.9785
  872SOL     OW 2656   5.237   3.799   2.044  0.4939 -0.3275  0.3566
  872SOL    HW1 2657   5.248   3.855   2.122  0.1710  0.7710 -0.3563
  872SOL    HW2 2658   5.173   3.733   2.071 -0.3589  0.6208  0.7541
  873SOL     OW 2659   5.515   4.446   2.797  0.2051  0.6424  0.1241
  873SOL    HW1 2660   5.437   4.478   2.843  0.7376  1.1559  0.6714
  873SOL    HW2 2661   5.483   4.371   2.746 -0.4745  0.2958  1.0351
  874SOL     OW 2662   4.870   4.292   2.774  0.0403 -0.5037 -0.5202
  874SOL    HW1 2663   4.837   4.213   2.816 -1.3641  0.5616  0.4677
  874SOL    HW2 2664   4.824   4.364   2.818  2.3441  0.9835 -0.3479
  875SOL     OW 2665   5.927   3.592   2.503 -0.4289  0.2750 -0.1242
  875SOL    HW1 2666   5.887   3.658   2.559  0.0391  2.2398 -2.0062
  875SOL    HW2 2667   5.869   3.587   2.427 -0.4637 -1.5330 -0.0230
  876SOL     OW 2668   6.024   3.921   2.997  0.3917  0.4323  0.0381
  876SOL    HW1 2669   5.951   3.877   3.041  0.4488  0.8692  0.5841
  876SOL    HW2 2670   6.002   3.917   2.904  0.1059 -0.2207  0.1276
  877SOL     OW 2671   4.543   4.122   2.429 -0.0566  0.5232  0.8148
  877SOL    HW1 2672   4.550   4.217   2.429 -2.4279  0.7612 -0.4563
  877SOL    HW2 2673   4.461   4.103   2.476 -0.5824 -0.7517 -0.5251
  878SOL     OW 2674   5.064   3.807   2.790  0.2007  0.5147 -1.0375
  878SOL    HW1 2675   5.001   3.806   2.718  0.6084  0.1027 -1.3956
  878SOL    HW2 2676   5.013   3.836   2.866 -0.4708 -0.0371 -1.2703
  879SOL     OW 2677   4.065   2.342   0.089 -0.4174  0.2676  0.1500
  879SOL    HW1 2678   3.999   2.350   0.020 -0.4368  0.5990  0.2037
  879SOL    HW2 2679   4.100   2.254   0.079 -0.3432  0.3511 -0.3541
  880SOL     OW 2680   2.904   1.915   0.037 -0.3346  1.1958  0.1778
  880SOL    HW1 2681   2.854   1.838   0.011 -0.0528  0.7257  0.9958
  880SOL    HW2 2682   2.991   1.881   0.057 -0.2295  1.7153  0.6197
  881SOL     OW 2683   4.365   4.224   2.219 -0.6269 -0.2047 -0.3391
  881SOL    HW1 2684   4.428   4.152   2.232  2.0945  2.1536  0.5931
  881SOL    HW2 2685   4.312   4.223   2.299  0.6077 -0.0840  0.5085
  882SOL     OW 2686   4.085   3.878   2.461 -0.1036  0.8634 -0.0667
  882SOL    HW1 2687   4.051   3.907   2.377 -1.1223  2.2253  0.7693
  882SOL    HW2 2688   4.008   3.873   2.517  0.5461 -0.1056  0.7664
  883SOL     OW 2689   5.169   3.951   2.268 -0.1236 -0.6925 -0.0361
  883SOL    HW1 2690   5.171   4.031   2.215  0.3341 -0.4064  0.3959
  883SOL    HW2 2691   5.077   3.935   2.286 -0.1679  0.3669  0.7900
  884SOL     OW 2692   4.265   1.737   0.251  0.3094 -0.4612  0.4376
  884SOL    HW1 2693   4.349   1.711   0.214  0.6569  0.9811  0.1556
  884SOL    HW2 2694   4.267   1.703   0.340  1.1896 -0.4635  0.4291
  885SOL     OW 2695   4.766   4.289   2.121  0.0253  0.2483 -0.1600
  885SOL    HW1 2696   4.719   4.250   2.047  0.0268 -0.9197  0.4291
  885SOL    HW2 2697   4.698   4.332   2.173 -0.2871 -0.7170  0.2480
  886SOL     OW 2698   2.523   1.853   0.502 -0.1200  0.1115  1.0642
  886SOL    HW1 2699   2.600   1.895   0.464 -0.7014  0.0994 -0.1706
  886SOL    HW2 2700   2.522   1.882   0.593  1.5314 -0.1656  1.1946
  887SOL     OW 2701   5.727   4.112   2.858  0.1987  0.2002 -0.0680
  887SOL    HW1 2702   5.723   4.159   2.941  0.1833  1.0262 -0.5275
  887SOL    HW2 2703   5.643   4.128   2.816  0.0512 -0.5440 -0.0720
  888SOL     OW 2704   5.387   3.644   3.013  0.3238 -0.3504  0.1732
  888SOL    HW1 2705   5.333   3.613   2.941 -0.6688  0.0886  0.7049
  888SOL    HW2 2706   5.461   3.687   2.972 -1.5495  2.2827 -0.6746
  889SOL     OW 2707   1.665   3.463   1.873  0.3161 -0.3131  0.6266
  889SOL    HW1 2708   1.731   3.476   1.941 -0.9092  0.7461  1.6579
  889SOL    HW2 2709   1.715   3.432   1.797  1.8861 -0.2787  1.5980
  890SOL     OW 2710   5.453   4.118   2.436  0.0111  0.0891  0.2726
  890SOL    HW1 2711   5.428   4.032   2.401  0.2672  0.0371  0.2183
  890SOL    HW2 2712   5.374   4.149   2.479 -0.1676 -0.0559  0.0579
  891SOL     OW 2713   5.511   3.723   2.630  0.2256  0.0783 -0.0634
  891SOL    HW1 2714   5.432   3.700   2.680 -0.0864  0.8361 -0.1958
  891SOL    HW2 2715   5.478   3.748   2.544  0.5985  0.5215 -0.0808
  892SOL     OW 2716   2.073   0.604   0.045 -0.0319 -0.0650  0.0918
  892SOL    HW1 2717   1.999   0.561   0.087  0.2689 -0.9383 -0.2324
  892SOL    HW2 2718   2.113   0.657   0.113 -0.5951 -0.0699  0.4279
  893SOL     OW 2719   2.324   4.774   0.760  0.3344 -0.0221 -0.3280
  893SOL    HW1 2720   2.253   4.792   0.698 -0.4955  2.9451  1.2402
  893SOL    HW2 2721   2.289   4.705   0.816 -0.3563 -0.2459 -1.0147
  894SOL     OW 2722   1.897   0.647   0.825 -0.2297 -0.1951 -0.1406
  894SOL    HW1 2723   1.870   0.556   0.821  0.4095 -0.4294  0.6277
  894SOL    HW2 2724   1.963   0.656   0.756  0.8254 -0.7219  0.7682
  895SOL     OW 2725   2.309   1.389   1.725  0.0336 -0.4612  0.3753
  895SOL    HW1 2726   2.345   1.321   1.669  1.6361  2.0083 -1.8615
  895SOL    HW2 2727   2.367   1.465   1.711 -2.0935  1.6453  2.0361
  896SOL     OW 2728   3.649   1.648   0.116 -0.8086  0.0725 -0.3578
  896SOL    HW1 2729   3.662   1.715   0.184  0.6061  0.6760 -1.1759
  896SOL    HW2 2730   3.588   1.586   0.155 -2.5719  2.0784  0.2582
  897SOL     OW 2731   3.474   0.852   0.406 -0.2411  0.1789 -0.1047
  897SOL    HW1 2732   3.539   0.877   0.472 -0.6453  0.1104  0.3277
  897SOL    HW2 2733   3.525   0.837   0.326  0.2077  0.6816  0.0802
  898SOL     OW 2734   2.432   1.179   1.171 -0.3807 -0.0462  0.3767
  898SOL    HW1 2735   2.459   1.102   1.121 -1.0709 -0.9239  1.3418
  898SOL    HW2 2736   2.510   1.235   1.171  0.7979 -1.5946  1.3171
  899SOL     OW 2737   2.872   4.921   1.793  0.0211 -0.3025  0.1810
  899SOL    HW1 2738   2.960   4.899   1.762 -0.1028 -0.8798  0.2273
  899SOL    HW2 2739   2.872   5.017   1.799  0.4650 -0.2644 -0.3530
  900SOL     OW 2740   2.654   0.718   0.940  0.1959 -0.0980 -0.2343
  900SOL    HW1 2741   2.628   0.808   0.918 -1.3167 -0.4483  0.0263
  900SOL    HW2 2742   2.614   0.665   0.871 -0.4868 -0.7373  0.6364
  901SOL     OW 2743   2.644   5.438   1.835 -0.4843  0.3597  0.1336
  901SOL    HW1 2744   2.666   5.500   1.904 -0.7376  0.4616  0.1216
  901SOL    HW2 2745   2.727   5.425   1.788 -0.5293  1.0109 -0.1318
  902SOL     OW 2746   2.545   1.326   0.305  0.4016  0.1551 -0.3374
  902SOL    HW1 2747   2.524   1.410   0.264  0.4779  0.5693  0.4497
  902SOL    HW2 2748   2.633   1.339   0.343  0.4331 -0.2924 -0.2512
  903SOL     OW 2749   3.183   1.718   1.154 -0.4156  0.1835  0.4369
  903SOL    HW1 2750   3.099   1.728   1.110 -0.3890 -1.0540  0.0615
  903SOL    HW2 2751   3.203   1.805   1.189 -1.0209  0.8980 -0.9236
  904SOL     OW 2752   2.397   4.607   1.549 -0.1423 -0.0589 -0.1173
  904SOL    HW1 2753   2.480   4.645   1.520 -0.9312  1.5904 -0.3578
  904SOL    HW2 2754   2.402   4.607   1.644  0.4468 -0.7347 -0.1418
  905SOL     OW 2755   3.712   4.884   1.061 -0.4407  0.8164 -0.1916
  905SOL    HW1 2756   3.624   4.913   1.039 -0.1601  1.3245 -0.6841
  905SOL    HW2 2757   3.745   4.952   1.120 -1.3440 -0.7415  2.2642
  906SOL     OW 2758   2.035   1.756   0.538  0.1335 -1.0040 -0.2220
  906SOL    HW1 2759   2.082   1.779   0.458 -0.1136 -2.8703 -0.9672
  906SOL    HW2 2760   1.950   1.799   0.530  0.7569  0.2679 -0.1050
  907SOL     OW 2761   3.137   1.700   1.943 -0.0231 -0.5700 -0.2032
  907SOL    HW1 2762   3.162   1.618   1.899  0.4548 -0.1614 -0.7120
  907SOL    HW2 2763   3.215   1.727   1.989 -0.1217 -0.2972 -0.1959
  908SOL     OW 2764   2.147   1.733   0.797  0.3974 -0.0732  0.4577
  908SOL    HW1 2765   2.095   1.659   0.828  2.2194 -1.4766  0.3488
  908SOL    HW2 2766   2.118   1.746   0.706 -0.0873 -0.5181  0.5429
  909SOL     OW 2767   1.997   1.050   0.862 -0.4331 -0.6891  0.1100
  909SOL    HW1 2768   1.994   1.078   0.771 -0.2293 -0.5042  0.1592
  909SOL    HW2 2769   2.049   1.117   0.906 -2.5844  0.5995  0.8650
  910SOL     OW 2770   2.412   1.885   1.132 -0.3905 -0.1726 -0.4484
  910SOL    HW1 2771   2.377   1.814   1.077  0.3324 -0.5731 -0.3988
  910SOL    HW2 2772   2.503   1.861   1.146 -0.2591  0.5510 -0.0631
  911SOL     OW 2773   3.203   4.515   1.642  0.2510  0.3314  0.1971
  911SOL    HW1 2774   3.145   4.548   1.711  0.1937  0.0943  0.2629
  911SOL    HW2 2775   3.158   4.439   1.607  0.8220 -0.2357  0.6796
  912SOL     OW 2776   2.099   0.794   0.592 -0.1881  0.4497  0.1759
  912SOL    HW1 2777   2.022   0.845   0.565 -0.5589 -1.0441 -1.8157
  912SOL    HW2 2778   2.174   0.847   0.565 -0.5601  0.6213 -0.5507
  913SOL     OW 2779   2.150   1.142   0.385  0.1062  0.0765 -0.5334
  913SOL    HW1 2780   2.145   1.166   0.478  1.5258 -0.8593 -0.1807
  913SOL    HW2 2781   2.142   1.225   0.338  1.8305  0.9145  0.5348
  914SOL     OW 2782   3.647   0.860   0.605  0.0669 -0.5249 -0.2145
  914SOL    HW1 2783   3.740   0.863   0.627  0.1806 -2.7840 -0.1488
  914SOL    HW2 2784   3.618   0.775   0.637 -2.0763  0.1889 -0.1273
  915SOL     OW 2785   2.232   1.197   1.363 -0.2838  0.5835 -0.6676
  915SOL    HW1 2786   2.295   1.195   1.435 -0.6902 -0.5690 -0.3255
  915SOL    HW2 2787   2.285   1.193   1.284  0.0817 -0.2972 -0.3856
  916SOL     OW 2788   2.828   1.120   0.702  0.2302 -0.2780 -0.1919
  916SOL    HW1 2789   2.824   1.073   0.619  0.1923 -1.7824  0.6374
  916SOL    HW2 2790   2.877   1.200   0.681 -1.6004  0.4334 -2.1256
  917SOL     OW 2791   3.020   5.355   1.976  0.2321  0.3948 -0.0754
  917SOL    HW1 2792   3.027   5.322   1.886  3.9615  1.3848 -0.3183
  917SOL    HW2 2793   3.016   5.276   2.030  0.3158 -0.2550 -1.0029
  918SOL     OW 2794   2.891   4.443   0.366  0.1229 -0.7057  0.3200
  918SOL    HW1 2795   2.942   4.454   0.285 -0.5171  0.1422  0.0209
  918SOL    HW2 2796   2.952   4.466   0.436  0.2153  0.1260 -0.0266
  919SOL     OW 2797   2.092   1.429   1.381  0.6515 -0.5920  0.1487
  919SOL    HW1 2798   2.147   1.354   1.361  1.5144 -0.1511  0.7642
  919SOL    HW2 2799   2.043   1.446   1.301 -0.1914 -2.3213  0.2703
  920SOL     OW 2800   3.308   1.536   1.788  0.6580  0.1270  0.1413
  920SOL    HW1 2801   3.312   1.441   1.798 -1.1590  0.1158  1.0254
  920SOL    HW2 2802   3.394   1.560   1.752  0.6008 -2.0093 -1.6218
  921SOL     OW 2803   2.209   4.399   1.867 -0.4735 -0.0560 -0.2186
  921SOL    HW1 2804   2.267   4.332   1.829 -0.0818  1.1662 -1.9203
  921SOL    HW2 2805   2.245   4.481   1.834 -1.4836  0.9359  1.0898
  922SOL     OW 2806   3.242   1.647   0.673  0.2113  0.2453 -0.5464
  922SOL    HW1 2807   3.270   1.575   0.730  1.5773  0.8551 -0.3999
  922SOL    HW2 2808   3.229   1.605   0.588 -0.0987 -0.3675 -0.2063
  923SOL     OW 2809   3.705   1.864   0.270 -0.7762  0.3653 -0.3312
  923SOL    HW1 2810   3.798   1.855   0.251 -0.6267  1.0926  0.0643
  923SOL    HW2 2811   3.683   1.953   0.242 -2.0352 -0.7291 -3.2627
  924SOL     OW 2812   3.529   4.674   1.190  0.3961  0.0166 -0.5037
  924SOL    HW1 2813   3.508   4.700   1.100  0.7527 -0.2072 -0.6527
  924SOL    HW2 2814   3.579   4.593   1.180  1.1729  0.4408 -0.1419
  925SOL     OW 2815   2.491   5.221   1.348 -0.7311 -0.4320 -0.7684
  925SOL    HW1 2816   2.416   5.207   1.406 -0.3902  0.0839 -0.1906
  925SOL    HW2 2817   2.455   5.214   1.260 -1.3126 -0.9457 -0.4960
  926SOL     OW 2818   3.367   5.027   1.484  0.2805  0.2115 -0.6006
  926SOL    HW1 2819   3.337   4.952   1.534  0.4651  0.6185  0.1307
  926SOL    HW2 2820   3.461   5.013   1.472  0.2056  0.0309 -0.9792
  927SOL     OW 2821   2.794   5.165   1.660  0.3219 -0.3998  0.5493
  927SOL    HW1 2822   2.781   5.119   1.577  3.3666 -0.5230  0.0367
  927SOL    HW2 2823   2.876   5.212   1.649  1.3871 -1.2270  3.8060
  928SOL     OW 2824   2.888   4.694   1.034  0.4945 -0.2730 -0.0908
  928SOL    HW1 2825   2.801   4.682   1.072 -0.4535  2.8106 -0.9702
  928SOL    HW2 2826   2.946   4.707   1.108 -0.3756  0.5927  0.4615
  929SOL     OW 2827   3.473   1.209   0.128  0.4749  0.0858 -0.0469
  929SOL    HW1 2828   3.555   1.189   0.172 -0.0197 -0.5944  0.5861
  929SOL    HW2 2829   3.499   1.234   0.039  1.2865 -1.6018 -0.3368
  930SOL     OW 2830   1.950   5.079   1.293 -0.2967 -0.6163 -0.5047
  930SOL    HW1 2831   2.026   5.116   1.247 -0.6196  0.2823 -0.3315
  930SOL    HW2 2832   1.910   5.154   1.337  1.3428 -1.7538  3.2771
  931SOL     OW 2833   1.903   2.180   1.424 -0.3169  0.0566 -0.6073
  931SOL    HW1 2834   1.893   2.275   1.417 -1.5685  0.0611  0.7885
  931SOL    HW2 2835   1.844   2.145   1.357 -0.6872  0.2519 -0.3860
  932SOL     OW 2836   3.358   5.007   1.848 -0.6783 -0.6927 -0.2833
  932SOL    HW1 2837   3.401   4.942   1.903  0.6069  1.3819  1.2822
  932SOL    HW2 2838   3.428   5.067   1.821 -1.8523  0.2323 -1.4217
  933SOL     OW 2839   3.435   1.474   0.177 -0.0917  0.7863 -0.4219
  933SOL    HW1 2840   3.464   1.383   0.179  0.5445  0.9507 -1.5242
  933SOL    HW2 2841   3.374   1.479   0.104 -1.5451  0.8604  0.7578
  934SOL     OW 2842   2.671   4.549   1.304 -0.1156 -0.1694 -0.6247
  934SOL    HW1 2843   2.671   4.504   1.388  1.2007 -0.4075 -0.7349
  934SOL    HW2 2844   2.669   4.479   1.238 -0.2686 -0.0108 -0.7908
  935SOL     OW 2845   3.369   1.709   0.308 -0.5144 -0.1250  0.1754
  935SOL    HW1 2846   3.275   1.722   0.318 -0.3794  0.2028  1.1603
  935SOL    HW2 2847   3.377   1.645   0.237 -1.4072  1.0062 -0.9769
  936SOL     OW 2848   1.957   1.462   0.551 -0.5432  0.0407  0.5944
  936SOL    HW1 2849   1.996   1.549   0.541 -2.9167  1.3878  2.0770
  936SOL    HW2 2850   1.904   1.450   0.472  1.8753 -1.3857 -0.9628
  937SOL     OW 2851   3.696   1.330   0.839 -0.0586 -0.2080  0.0177
  937SOL    HW1 2852   3.716   1.310   0.931  0.1838 -0.6816 -0.1317
  937SOL    HW2 2853   3.672   1.245   0.801  0.5398 -0.1393 -0.5277
  938SOL     OW 2854   3.214   1.547   1.491 -0.2950 -0.0385  0.9656
  938SOL    HW1 2855   3.233   1.543   1.585  1.1206 -2.5876  0.6365
  938SOL    HW2 2856   3.294   1.514   1.449 -0.6820  1.5607 -1.2068
  939SOL     OW 2857   3.479   1.062   0.764 -0.1404  0.0013 -0.0895
  939SOL    HW1 2858   3.412   1.015   0.813  0.2272  0.6603  1.1034
  939SOL    HW2 2859   3.506   1.001   0.695  0.9024 -1.9102  1.8751
  940SOL     OW 2860   2.424   1.188   1.586  0.2292 -0.2625  0.2191
  940SOL    HW1 2861   2.494   1.155   1.530 -0.0027 -0.7390  0.2033
  940SOL    HW2 2862   2.406   1.117   1.648  0.0250  0.0012  0.4680
  941SOL     OW 2863   1.854   4.638   1.509  0.0445 -0.3318  0.3235
  941SOL    HW1 2864   1.890   4.661   1.594 -1.2667  0.8971  0.5993
  941SOL    HW2 2865   1.892   4.702   1.449  0.3072 -0.6573  0.1419
  942SOL     OW 2866   2.473   1.565   0.191  0.4637 -0.0121  0.1969
  942SOL    HW1 2867   2.412   1.627   0.231 -0.7107 -0.5750 -0.6656
  942SOL    HW2 2868   2.531   1.620   0.138 -0.6936  0.3758 -0.7241
  943SOL     OW 2869   2.384   1.700   0.935 -0.2032  0.2836  0.0944
  943SOL    HW1 2870   2.457   1.690   0.874 -0.2288 -0.1688  0.1347
  943SOL    HW2 2871   2.307   1.711   0.878  0.0210  1.8514  0.0457
  944SOL     OW 2872   2.875   1.961   1.406 -0.6121  0.5338  0.4121
  944SOL    HW1 2873   2.937   1.958   1.333 -1.1054  0.5486 -0.0098
  944SOL    HW2 2874   2.899   1.885   1.460 -0.1680  0.5914  0.3011
  945SOL     OW 2875   2.658   4.707   0.587  0.7779 -0.1441 -0.0937
  945SOL    HW1 2876   2.745   4.727   0.553  0.5462 -2.0360 -1.9713
  945SOL    HW2 2877   2.670   4.629   0.640 -0.2028 -2.8216 -3.4499
  946SOL     OW 2878   3.435   4.513   1.916 -0.7914 -0.0528 -0.5479
  946SOL    HW1 2879   3.398   4.427   1.900 -0.5818  0.0167 -1.4456
  946SOL    HW2 2880   3.506   4.522   1.852  0.2053  0.1694  0.5425
  947SOL     OW 2881   2.916   4.661   1.568 -0.2184  0.2750  0.1858
  947SOL    HW1 2882   2.833   4.690   1.606 -1.3751 -1.8214 -0.5980
  947SOL    HW2 2883   2.970   4.638   1.644 -0.8911  0.2383  0.6635
  948SOL     OW 2884   2.680   1.285   1.123 -0.1642  0.1247 -0.2478
  948SOL    HW1 2885   2.663   1.374   1.093 -2.5048 -0.5086 -0.9989
  948SOL    HW2 2886   2.775   1.281   1.135 -0.1322  3.2587  1.6338
  949SOL     OW 2887   3.051   1.055   1.276 -0.5698 -0.3277  0.2407
  949SOL    HW1 2888   3.106   1.053   1.354  0.0009  0.2642 -0.1362
  949SOL    HW2 2889   3.063   0.969   1.236 -0.4193 -0.4284  0.5014
  950SOL     OW 2890   2.624   0.991   0.866  0.3451 -0.0085  0.2053
  950SOL    HW1 2891   2.611   0.943   0.785  1.1990  1.3711 -0.7922
  950SOL    HW2 2892   2.687   1.060   0.844 -2.0742  2.7069  1.0826
  951SOL     OW 2893   3.251   0.629   0.820 -0.7978 -0.3933 -0.0502
  951SOL    HW1 2894   3.240   0.695   0.751 -0.7603 -0.0441  0.2728
  951SOL    HW2 2895   3.168   0.583   0.823 -0.9214 -0.1714 -0.0812
  952SOL     OW 2896   2.757   4.493   0.709  0.0942 -0.4721  0.3571
  952SOL    HW1 2897   2.698   4.489   0.784 -0.6060 -1.0574 -0.2036
  952SOL    HW2 2898   2.734   4.417   0.656  0.4200  0.0423 -0.5604
  953SOL     OW 2899   3.279   4.621   1.389 -0.2949 -0.3532 -0.2090
  953SOL    HW1 2900   3.270   4.558   1.460  3.0384 -2.9800 -1.8292
  953SOL    HW2 2901   3.373   4.641   1.386 -0.5621  0.9885 -2.7724
  954SOL     OW 2902   2.931   1.749   0.978  0.2760 -0.4719 -0.1245
  954SOL    HW1 2903   2.908   1.662   1.010  1.3807 -0.9817 -0.6690
  954SOL    HW2 2904   2.937   1.739   0.883 -0.2054  0.3584 -0.2569
  955SOL     OW 2905   2.315   1.070   0.820 -0.0677  0.1890  0.7679
  955SOL    HW1 2906   2.292   1.024   0.739 -1.9401  0.4558  1.1108
  955SOL    HW2 2907   2.334   1.159   0.793  0.8793 -0.0959  0.4475
  956SOL     OW 2908   3.189   2.066   0.234 -0.2015 -0.0669 -0.6454
  956SOL    HW1 2909   3.247   2.111   0.295 -0.6271  2.4485 -1.9547
  956SOL    HW2 2910   3.135   2.009   0.289  1.1122  0.1942  0.9841
  957SOL     OW 2911   2.291   4.995   1.289  0.0463  0.0574 -0.4103
  957SOL    HW1 2912   2.279   4.929   1.221 -2.9459 -1.2812  1.2127
  957SOL    HW2 2913   2.236   5.069   1.260 -0.2465 -0.0252 -0.0751
  958SOL     OW 2914   2.072   4.514   1.138  0.0826 -0.4218 -0.2198
  958SOL    HW1 2915   2.099   4.521   1.230  1.7011  1.0041 -0.7430
  958SOL    HW2 2916   2.036   4.426   1.130  0.6273 -0.8602  1.5933
  959SOL     OW 2917   3.096   4.555   0.534  0.3672  0.0474  0.0432
  959SOL    HW1 2918   3.086   4.520   0.623  1.8308  0.2405  0.3136
  959SOL    HW2 2919   3.139   4.640   0.547 -0.5730  0.6634 -0.7832
  960SOL     OW 2920   3.183   4.340   0.889 -0.2217  0.1773  0.2763
  960SOL    HW1 2921   3.110   4.390   0.853 -0.5503 -0.4751  0.0186
  960SOL    HW2 2922   3.164   4.333   0.983 -0.5505 -0.0859  0.1912
  961SOL     OW 2923   3.476   1.336   0.611 -0.0104  0.1506 -0.3382
  961SOL    HW1 2924   3.429   1.384   0.679  2.0773  2.7339 -0.5542
  961SOL    HW2 2925   3.479   1.246   0.644 -1.2531  0.7840  1.7370
  962SOL     OW 2926   3.240   0.950   0.946  0.4198 -0.6715 -0.4631
  962SOL    HW1 2927   3.191   0.898   1.009 -0.7034  2.0096  1.0310
  962SOL    HW2 2928   3.182   0.955   0.869 -0.1568 -0.2975 -0.0054
  963SOL     OW 2929   4.152   0.817   0.284 -0.5682  0.0057  0.1536
  963SOL    HW1 2930   4.238   0.856   0.272 -0.6614  0.0252 -0.4705
  963SOL    HW2 2931   4.167   0.722   0.276 -0.5983  0.0072  0.0738
  964SOL     OW 2932   3.695   1.302   0.279 -0.6485  0.1400  0.3924
  964SOL    HW1 2933   3.656   1.377   0.323  0.9974  0.6282  1.0908
  964SOL    HW2 2934   3.709   1.238   0.348 -1.6566 -0.6639 -0.1287
  965SOL     OW 2935   2.364   4.201   0.587  0.4514 -0.2994 -0.5144
  965SOL    HW1 2936   2.278   4.198   0.546 -0.5902 -0.4027  1.5849
  965SOL    HW2 2937   2.400   4.113   0.574 -0.2703 -0.6228 -0.3705
  966SOL     OW 2938   3.443   1.480   1.365 -0.3314 -0.0743  0.0094
  966SOL    HW1 2939   3.527   1.460   1.324 -1.0608 -1.7761 -0.7304
  966SOL    HW2 2940   3.448   1.574   1.384  0.3965  0.6520 -3.1735
  967SOL     OW 2941   2.972   1.243   1.099 -0.5303 -0.0687  0.3207
  967SOL    HW1 2942   3.002   1.178   1.163  1.0567 -0.2542 -0.5749
  967SOL    HW2 2943   3.000   1.327   1.136 -2.9384  0.2464  1.6832
  968SOL     OW 2944   3.956   1.946   1.429  0.9960 -0.1446  0.2532
  968SOL    HW1 2945   3.916   1.910   1.351 -0.7596  0.4676  0.8240
  968SOL    HW2 2946   3.947   1.877   1.495 -0.8913  0.6427  0.8924
  969SOL     OW 2947   3.006   1.502   1.172  0.0934  0.2787 -0.0805
  969SOL    HW1 2948   2.936   1.514   1.236 -0.0002 -1.1971  0.1295
  969SOL    HW2 2949   3.071   1.568   1.194  0.2916 -0.5139  1.8744
  970SOL     OW 2950   3.489   1.244   1.094 -0.9953 -0.2905 -0.2764
  970SOL    HW1 2951   3.404   1.261   1.052 -1.9815 -2.2037  0.8198
  970SOL    HW2 2952   3.478   1.159   1.135  1.0526  0.0186  1.0076
  971SOL     OW 2953   2.684   4.272   1.400 -0.2950 -0.0983 -0.4671
  971SOL    HW1 2954   2.752   4.213   1.367 -1.0996 -1.5961  0.4198
  971SOL    HW2 2955   2.603   4.222   1.389 -0.9841  0.7726  0.5041
  972SOL     OW 2956   2.648   5.119   2.065 -0.7921  0.0113 -0.0239
  972SOL    HW1 2957   2.691   5.069   2.135 -0.1067  1.5437  0.7075
  972SOL    HW2 2958   2.685   5.207   2.073 -2.7200  0.9237 -0.5699
  973SOL     OW 2959   2.187   0.922   1.233  0.1000 -0.5680 -0.7488
  973SOL    HW1 2960   2.148   1.007   1.253 -1.9252 -0.9742 -2.5510
  973SOL    HW2 2961   2.256   0.942   1.170  1.2649 -0.0762  0.6301
  974SOL     OW 2962   3.279   4.902   1.229 -0.2147 -0.2089 -0.3841
  974SOL    HW1 2963   3.323   4.949   1.300  0.3648 -1.1148 -0.1286
  974SOL    HW2 2964   3.261   4.815   1.265  0.6768 -0.9088 -1.5367
  975SOL     OW 2965   1.884   1.852   1.400  0.1196  0.3922 -0.4561
  975SOL    HW1 2966   1.944   1.861   1.326  1.5913 -0.1458  0.6253
  975SOL    HW2 2967   1.797   1.854   1.360  0.8461 -2.3529 -2.5204
  976SOL     OW 2968   2.325   1.334   0.770  0.2073  0.1738  0.7165
  976SOL    HW1 2969   2.408   1.326   0.816  0.2758 -0.9305  0.4351
  976SOL    HW2 2970   2.347   1.375   0.686  0.9221 -2.3097 -0.4182
  977SOL     OW 2971   2.540   0.578   0.707 -0.1412  0.5593 -0.5233
  977SOL    HW1 2972   2.593   0.513   0.659  3.1009  2.2911  0.3898
  977SOL    HW2 2973   2.465   0.528   0.740  1.8816 -2.6350 -0.3073
  978SOL     OW 2974   3.359   1.448   0.821  0.2718  0.2952 -0.4803
  978SOL    HW1 2975   3.291   1.387   0.849  0.5987 -0.4801 -1.3229
  978SOL    HW2 2976   3.387   1.492   0.902 -0.5082 -0.1125  0.0201
  979SOL     OW 2977   3.910   0.715   0.071  0.0269  0.3030 -0.2061
  979SOL    HW1 2978   3.873   0.626   0.069 -1.6842  0.9864 -2.1964
  979SOL    HW2 2979   4.003   0.702   0.051  0.0771 -1.1168  0.7723
  980SOL     OW 2980   2.102   1.475   0.869  0.2294 -0.0289 -0.0947
  980SOL    HW1 2981   2.059   1.411   0.813 -1.2928  1.6193 -0.8918
  980SOL    HW2 2982   2.195   1.464   0.851  0.1850 -2.9415  0.8533
  981SOL     OW 2983   2.518   5.074   1.774  0.1041  0.2331  0.2471
  981SOL    HW1 2984   2.527   5.041   1.864 -1.3403 -0.3328  0.2038
  981SOL    HW2 2985   2.603   5.114   1.755  2.1785 -3.7054  0.1846
  982SOL     OW 2986   3.329   5.375   1.949  0.3907 -0.3969 -0.3447
  982SOL    HW1 2987   3.385   5.331   2.013 -0.0729  0.1949  0.5046
  982SOL    HW2 2988   3.243   5.379   1.992  0.5421  1.7987 -0.1470
  983SOL     OW 2989   2.939   4.352   1.845  0.2823  0.3708  0.0653
  983SOL    HW1 2990   2.960   4.316   1.759  1.6409 -1.6901  1.1582
  983SOL    HW2 2991   3.022   4.349   1.892 -0.8566 -0.7426  2.1567
  984SOL     OW 2992   2.601   4.191   1.689 -0.0129 -0.5078  0.3360
  984SOL    HW1 2993   2.609   4.208   1.595  1.5100  3.4525  0.9829
  984SOL    HW2 2994   2.675   4.133   1.709  1.8963  1.5030 -0.4638
  985SOL     OW 2995   2.177   1.193   1.008 -0.2699 -0.6534 -0.0622
  985SOL    HW1 2996   2.239   1.227   1.073 -0.3421 -1.8103  0.6366
  985SOL    HW2 2997   2.232   1.160   0.937 -0.1273 -0.6993  0.0691
  986SOL     OW 2998   3.124   5.145   1.152 -0.2917  0.2729 -0.2661
  986SOL    HW1 2999   3.043   5.098   1.132 -0.7488  2.0024 -3.0405
  986SOL    HW2 3000   3.191   5.077   1.159 -1.4800 -0.9984 -0.8665
  987SOL     OW 3001   3.094   0.627   0.166 -0.0881 -0.6667  0.5446
  987SOL    HW1 3002   3.046   0.665   0.092  1.0301  0.4219  0.3436
  987SOL    HW2 3003   3.042   0.649   0.243  0.1435  0.6468  0.3486
  988SOL     OW 3004   2.342   4.484   1.002 -0.9105  0.5696  0.0002
  988SOL    HW1 3005   2.261   4.480   1.054 -0.5320 -2.4595  0.5059
  988SOL    HW2 3006   2.354   4.395   0.969  1.8207  1.1160 -0.7207
  989SOL     OW 3007   1.986   1.392   1.080  0.2761 -0.2303  0.1849
  989SOL    HW1 3008   2.026   1.448   1.013  0.1662 -1.5526 -1.0391
  989SOL    HW2 3009   2.043   1.315   1.084 -0.9987 -1.2440 -0.1488
  990SOL     OW 3010   2.602   4.814   1.038 -0.3047  0.1763 -0.0193
  990SOL    HW1 3011   2.637   4.897   1.004 -0.8673 -0.3386 -1.9747
  990SOL    HW2 3012   2.606   4.824   1.133 -1.8390  3.1071 -0.1347
  991SOL     OW 3013   3.655   1.523   1.866  0.5811  0.1441  0.3770
  991SOL    HW1 3014   3.583   1.494   1.922 -0.9392  0.0690 -1.4973
  991SOL    HW2 3015   3.721   1.453   1.872  0.5457  0.2281  2.1482
  992SOL     OW 3016   2.656   4.252   0.620 -0.3436  0.1366 -0.3305
  992SOL    HW1 3017   2.560   4.256   0.617 -0.3670 -0.3121 -0.2629
  992SOL    HW2 3018   2.675   4.162   0.647  0.0418  0.8098  1.8705
  993SOL     OW 3019   3.452   4.937   1.014 -0.0948  0.2475  0.3516
  993SOL    HW1 3020   3.388   4.927   1.085  1.1644 -0.8150  1.3737
  993SOL    HW2 3021   3.398   4.947   0.936 -1.5167  0.6325  1.3315
  994SOL     OW 3022   2.715   1.570   1.804  0.3571 -0.4754 -0.3389
  994SOL    HW1 3023   2.622   1.573   1.828  0.7878 -0.2247  1.3686
  994SOL    HW2 3024   2.717   1.521   1.722 -1.5331  1.4820 -1.6865
  995SOL     OW 3025   4.062   1.708   1.235 -0.1676  0.0445  0.5010
  995SOL    HW1 3026   4.112   1.727   1.155  1.4588  0.5539  1.5764
  995SOL    HW2 3027   3.975   1.684   1.204  0.5641 -0.2792 -1.4435
  996SOL     OW 3028   2.066   5.258   1.902  0.1198 -0.1067  0.1549
  996SOL    HW1 3029   1.976   5.269   1.931  0.6281  1.4060  1.3213
  996SOL    HW2 3030   2.080   5.331   1.841  0.5735 -0.3042  0.0176
  997SOL     OW 3031   2.624   1.345   0.763  0.2155 -0.1865  0.3677
  997SOL    HW1 3032   2.697   1.333   0.824  1.7606  1.9247 -0.9647
  997SOL    HW2 3033   2.653   1.303   0.682  2.1447  4.4387 -1.6666
  998SOL     OW 3034   2.407   0.926   1.074  0.1154  0.2829  0.0869
  998SOL    HW1 3035   2.452   0.845   1.050 -1.1506 -0.4497  0.0746
  998SOL    HW2 3036   2.387   0.967   0.990 -0.8439 -0.3213  0.0005
  999SOL     OW 3037   2.322   4.819   1.098 -0.3506 -0.0741 -0.0460
  999SOL    HW1 3038   2.416   4.827   1.082 -0.5347  0.1178 -1.0805
  999SOL    HW2 3039   2.300   4.731   1.068 -0.5215 -0.0912  0.1244
 1000SOL     OW 3040   3.535   4.723   1.569  0.1648  0.6051 -0.4325
 1000SOL    HW1 3041   3.578   4.651   1.617  2.3068  1.9918 -0.1171
 1000SOL    HW2 3042   3.461   4.747   1.625  0.1810 -0.5045  0.1061
 1001SOL     OW 3043   3.028   4.636   1.299 -0.0453 -0.3045  0.3245
 1001SOL    HW1 3044   3.111   4.639   1.347 -0.4869  1.4019  1.0509
 1001SOL    HW2 3045   2.964   4.674   1.359 -0.6951  1.5597 -1.4442
 1002SOL     OW 3046   3.958   3.100   3.043 -0.1746 -0.0931 -0.0862
 1002SOL    HW1 3047   4.004   3.070   2.964 -0.9416 -0.5122 -0.3903
 1002SOL    HW2 3048   3.897   3.167   3.011 -0.7811 -0.5551  0.0672
 1003SOL     OW 3049   1.828   2.281   0.740  0.1047 -0.0067 -0.0017
 1003SOL    HW1 3050   1.868   2.226   0.807 -1.3479  0.5973  1.4429
 1003SOL    HW2 3051   1.831   2.369   0.776 -1.2854  0.2410 -0.4296
 1004SOL     OW 3052   2.796   1.655   0.526  0.1862 -0.3695 -0.6511
 1004SOL    HW1 3053   2.781   1.731   0.470 -1.3386 -0.1196  0.0298
 1004SOL    HW2 3054   2.777   1.579   0.471  2.2968 -0.3336 -1.5134
 1005SOL     OW 3055   2.718   5.064   1.430 -0.4930 -0.5995  0.0944
 1005SOL    HW1 3056   2.646   5.123   1.408 -0.7869 -0.9129  0.2059
 1005SOL    HW2 3057   2.687   4.978   1.404 -0.4222 -0.8269  0.7602
 1006SOL     OW 3058   1.947   4.798   1.318  0.1338  0.1893  0.1198
 1006SOL    HW1 3059   1.966   4.892   1.308 -2.6741  0.8631  0.2283
 1006SOL    HW2 3060   1.936   4.766   1.229  0.5518  0.0889  0.1038
 1007SOL     OW 3061   2.218   4.904   1.524  0.0025 -0.0360 -0.7642
 1007SOL    HW1 3062   2.183   4.984   1.564  1.6212  0.5414 -0.4230
 1007SOL    HW2 3063   2.245   4.931   1.437 -1.4355 -0.7584 -1.4619
 1008SOL     OW 3064   3.115   5.102   1.845 -0.1119 -0.5782  0.4231
 1008SOL    HW1 3065   3.111   5.167   1.774  0.8424 -0.4223  0.4986
 1008SOL    HW2 3066   3.204   5.067   1.840 -0.4456 -1.5007  0.7269
 1009SOL     OW 3067   3.803   5.106   1.218  0.1427 -0.2716  0.6294
 1009SOL    HW1 3068   3.860   5.173   1.181  0.6331 -0.9987  0.0268
 1009SOL    HW2 3069   3.714   5.141   1.205  0.3830  0.1755  0.1579
 1010SOL     OW 3070   1.960   1.359   1.624 -0.5996  0.1782 -0.1291
 1010SOL    HW1 3071   1.870   1.375   1.597 -0.2358  1.6738 -0.5384
 1010SOL    HW2 3072   2.012   1.377   1.546  0.1526  0.7279  0.4853
 1011SOL     OW 3073   3.017   4.524   0.807  0.2089 -0.1466  0.0854
 1011SOL    HW1 3074   2.998   4.586   0.877  0.3613  0.1485 -0.1295
 1011SOL    HW2 3075   2.931   4.500   0.772 -0.0316 -1.9203  1.7305
 1012SOL     OW 3076   2.918   1.584   1.413 -0.7895 -0.1896 -0.2559
 1012SOL    HW1 3077   2.935   1.634   1.493 -0.6567 -2.6211  1.3186
 1012SOL    HW2 3078   2.978   1.510   1.417 -2.8272 -1.9871 -1.0871
 1013SOL     OW 3079   2.549   0.430   0.318 -0.1707  0.9688 -0.1782
 1013SOL    HW1 3080   2.580   0.429   0.409  1.6164 -0.2497 -0.7509
 1013SOL    HW2 3081   2.454   0.420   0.325  0.0359 -0.2137  1.5416
 1014SOL     OW 3082   2.177   1.587   1.581 -0.0013  0.3994 -0.7187
 1014SOL    HW1 3083   2.197   1.519   1.647 -0.4446  0.2289 -0.7555
 1014SOL    HW2 3084   2.163   1.538   1.500 -1.2651  0.4477 -0.5388
 1015SOL     OW 3085   3.224   1.227   0.934 -0.2930  0.0454  0.4882
 1015SOL    HW1 3086   3.140   1.234   0.979 -2.6520 -2.7862 -2.9504
 1015SOL    HW2 3087   3.239   1.133   0.926  2.3472  0.4796 -0.5098
 1016SOL     OW 3088   3.290   0.834   0.167 -0.5049  0.3793 -0.5015
 1016SOL    HW1 3089   3.333   0.837   0.253 -0.1643  0.3745 -0.6689
 1016SOL    HW2 3090   3.230   0.760   0.173  0.6559 -0.6164 -0.7854
 1017SOL     OW 3091   3.927   1.904   0.861  1.0557 -0.1153  0.2074
 1017SOL    HW1 3092   3.977   1.949   0.792  0.2193  0.2171 -0.1879
 1017SOL    HW2 3093   3.836   1.908   0.831  0.3520  1.9198  2.3359
 1018SOL     OW 3094   3.358   1.844   0.834 -0.5506 -0.4782 -0.2335
 1018SOL    HW1 3095   3.450   1.819   0.843  0.2109  1.7070 -1.3619
 1018SOL    HW2 3096   3.321   1.777   0.776 -0.0122 -1.9824  1.0620
 1019SOL     OW 3097   1.860   1.054   1.258 -0.1186 -0.4335  0.6603
 1019SOL    HW1 3098   1.837   1.133   1.210  0.6721 -0.7023 -0.1703
 1019SOL    HW2 3099   1.802   0.987   1.222  0.6067 -0.6783 -0.0732
 1020SOL     OW 3100   2.359   1.543   1.154  0.1462  0.2666 -0.1798
 1020SOL    HW1 3101   2.372   1.598   1.076 -1.4228 -0.6775 -1.1526
 1020SOL    HW2 3102   2.276   1.573   1.191  1.6762  1.8982  2.2214
 1021SOL     OW 3103   3.756   4.478   0.695  0.2865  0.4994 -0.1175
 1021SOL    HW1 3104   3.793   4.533   0.626  0.0755  0.3785 -0.3271
 1021SOL    HW2 3105   3.662   4.491   0.688  0.0595 -1.4978 -1.5496
 1022SOL     OW 3106   3.432   1.875   0.085 -0.4469 -0.2488 -0.4429
 1022SOL    HW1 3107   3.492   1.950   0.087 -0.7448  0.0315 -1.5374
 1022SOL    HW2 3108   3.424   1.848   0.176  0.7735  0.1713 -0.1996
 1023SOL     OW 3109   2.029   1.676   1.967  0.1566  0.3952 -0.8323
 1023SOL    HW1 3110   1.982   1.741   1.914 -1.5689 -0.1074  0.0358
 1023SOL    HW2 3111   2.011   1.593   1.925  1.2484  0.3012 -1.1487
 1024SOL     OW 3112   3.195   1.478   0.446 -0.3440 -0.4487 -0.3446
 1024SOL    HW1 3113   3.269   1.419   0.458 -1.5477 -1.6295  1.7356
 1024SOL    HW2 3114   3.170   1.467   0.354  0.9680 -1.2909 -0.6255
 1025SOL     OW 3115   2.889   1.161   1.583 -0.0728 -0.9125 -0.7381
 1025SOL    HW1 3116   2.859   1.251   1.572 -0.2796 -1.0489 -1.2725
 1025SOL    HW2 3117   2.823   1.108   1.541 -1.4265 -1.5352  1.9365
 1026SOL     OW 3118   3.899   1.965   1.116  0.2381  0.4687  0.0484
 1026SOL    HW1 3119   3.912   1.937   1.026 -3.2564  1.6159 -0.9612
 1026SOL    HW2 3120   3.843   2.042   1.110  2.3195  2.4594  3.1088
 1027SOL     OW 3121   3.689   4.418   1.256  0.2828 -0.2475  1.0123
 1027SOL    HW1 3122   3.767   4.465   1.287  0.0948  1.0502 -0.3858
 1027SOL    HW2 3123   3.721   4.364   1.183 -0.0385 -0.0796  0.7484
 1028SOL     OW 3124   2.201   0.279   0.435  0.2551  0.0903  1.0814
 1028SOL    HW1 3125   2.283   0.228   0.433  0.5575  0.5455  1.5073
 1028SOL    HW2 3126   2.227   0.364   0.471 -0.1791  0.6915  0.0113
 1029SOL     OW 3127   2.860   5.070   1.134 -0.1942  0.0494 -0.8324
 1029SOL    HW1 3128   2.828   5.093   1.221  0.0896 -0.0219 -0.7076
 1029SOL    HW2 3129   2.787   5.090   1.076 -1.9309 -3.5015 -0.1802
 1030SOL     OW 3130   1.927   1.725   1.670  0.0465  0.0346 -0.3070
 1030SOL    HW1 3131   1.912   1.763   1.583  0.2754 -1.5463 -1.0680
 1030SOL    HW2 3132   2.013   1.683   1.663  0.3250  0.3867  0.8762
 1031SOL     OW 3133   3.399   1.549   1.097  0.7607  0.3769  0.0569
 1031SOL    HW1 3134   3.415   1.487   1.168  1.2751 -0.6993 -0.9513
 1031SOL    HW2 3135   3.321   1.597   1.124 -0.3032 -1.4361  0.4241
 1032SOL     OW 3136   2.957   1.327   0.587 -0.1420  0.6853 -0.4158
 1032SOL    HW1 3137   2.921   1.392   0.646  0.4453 -0.7216  1.5967
 1032SOL    HW2 3138   3.049   1.352   0.576  0.8856 -1.2184  2.6636
 1033SOL     OW 3139   2.974   4.917   0.855 -0.3293  1.3056 -0.2214
 1033SOL    HW1 3140   2.942   4.827   0.868  3.1387 -0.1632 -0.5713
 1033SOL    HW2 3141   2.951   4.962   0.936 -1.7879 -0.0241  0.1503
 1034SOL     OW 3142   2.421   1.098   0.308  0.7728 -0.8190  0.3528
 1034SOL    HW1 3143   2.459   1.186   0.302 -0.2994 -0.3996 -0.4738
 1034SOL    HW2 3144   2.326   1.112   0.309  0.3271 -2.0911 -4.0537
 1035SOL     OW 3145   1.986   1.203   0.639  0.5174  0.0390  0.0216
 1035SOL    HW1 3146   2.006   1.293   0.613  2.0794 -0.3239 -0.1360
 1035SOL    HW2 3147   1.908   1.181   0.589  0.0877  1.3187  0.0920
 1036SOL     OW 3148   2.124   5.491   1.743 -0.1197 -0.0525 -0.0330
 1036SOL    HW1 3149   2.101   5.576   1.707  0.4227  0.4542  0.7931
 1036SOL    HW2 3150   2.211   5.503   1.781 -0.6799 -0.5243  1.4893
 1037SOL     OW 3151   2.602   4.812   1.327 -0.0279 -0.8405 -0.2131
 1037SOL    HW1 3152   2.620   4.718   1.322  1.7732 -0.5715  0.5721
 1037SOL    HW2 3153   2.524   4.818   1.383  0.0677 -1.8411  0.0550
 1038SOL     OW 3154   1.784   0.496   0.095 -0.7406 -0.0782 -0.3319
 1038SOL    HW1 3155   1.842   0.444   0.040  0.8011  1.3288 -0.1078
 1038SOL    HW2 3156   1.747   0.433   0.157 -0.4187 -1.2115 -1.2465
 1039SOL     OW 3157   3.057   5.293   1.674  0.4715  0.3592  0.2317
 1039SOL    HW1 3158   2.987   5.352   1.646  0.1883 -0.0625  0.0480
 1039SOL    HW2 3159   3.117   5.291   1.600  1.3712  1.7610  0.8848
 1040SOL     OW 3160   2.420   4.423   0.395 -0.1713 -0.6000  0.4673
 1040SOL    HW1 3161   2.477   4.419   0.318  2.1747  0.4586  2.0468
 1040SOL    HW2 3162   2.413   4.332   0.424  0.4753 -0.7780  0.0902
 1041SOL     OW 3163   2.686   1.033   1.488  0.2049  0.0553 -0.2497
 1041SOL    HW1 3164   2.625   0.998   1.423 -0.6923 -0.5530  0.8854
 1041SOL    HW2 3165   2.683   0.970   1.560  2.9268 -0.5380 -0.5368
 1042SOL     OW 3166   3.696   1.842   0.698  0.0258  0.0907  0.5882
 1042SOL    HW1 3167   3.643   1.819   0.622  0.9309  1.1024 -0.4041
 1042SOL    HW2 3168   3.668   1.782   0.767 -0.8386 -0.8428 -0.5364
 1043SOL     OW 3169   2.679   4.759   1.736 -0.8260  0.5742 -0.8697
 1043SOL    HW1 3170   2.745   4.823   1.759  0.1160  0.6364 -3.3983
 1043SOL    HW2 3171   2.625   4.802   1.670 -2.0263 -0.2520 -0.4729
 1044SOL     OW 3172   3.241   5.290   1.480 -0.3256  0.1102  0.2246
 1044SOL    HW1 3173   3.281   5.203   1.484  0.6329  0.5618  0.9931
 1044SOL    HW2 3174   3.315   5.350   1.483 -1.0111  0.9626  0.3792
 1045SOL     OW 3175   2.203   1.768   1.281  0.3119  0.3510 -0.3369
 1045SOL    HW1 3176   2.223   1.734   1.368  1.5950 -1.6086 -1.3110
 1045SOL    HW2 3177   2.267   1.837   1.266  0.2075  0.5633  0.2097
 1046SOL     OW 3178   3.528   0.865   1.077 -0.1790 -0.0932  0.0854
 1046SOL    HW1 3179   3.455   0.912   1.037  1.0899  0.1880 -2.0601
 1046SOL    HW2 3180   3.506   0.773   1.068  0.3447 -0.0783 -2.0152
 1047SOL     OW 3181   3.269   0.445   0.510 -0.7859  0.3681  0.1339
 1047SOL    HW1 3182   3.326   0.464   0.435 -1.0845  0.9030  0.0360
 1047SOL    HW2 3183   3.239   0.531   0.540 -2.2437  0.0659 -0.3736
 1048SOL     OW 3184   3.228   0.727   0.547 -0.1288 -0.0141 -0.1209
 1048SOL    HW1 3185   3.140   0.758   0.527  0.2782  0.1353 -1.8234
 1048SOL    HW2 3186   3.287   0.785   0.498  0.8984 -0.3863  0.6199
 1049SOL     OW 3187   3.712   5.015   1.616  0.1227  0.1145 -0.8872
 1049SOL    HW1 3188   3.684   4.924   1.626  1.1679 -0.1231  0.1277
 1049SOL    HW2 3189   3.666   5.062   1.684  0.6911  0.0702 -0.4650
 1050SOL     OW 3190   3.597   5.273   1.437  0.3207  0.7067 -0.8065
 1050SOL    HW1 3191   3.627   5.299   1.350  1.7715 -0.4253 -0.6879
 1050SOL    HW2 3192   3.643   5.190   1.455 -1.9065 -0.4514 -0.0251
 1051SOL     OW 3193   2.386   1.442   0.517  0.1626  0.3625 -0.2956
 1051SOL    HW1 3194   2.387   1.535   0.540  0.9296  0.4084 -0.4879
 1051SOL    HW2 3195   2.468   1.428   0.470 -0.2122 -0.2884 -0.7834
 1052SOL     OW 3196   3.073   1.002   0.729 -0.5988 -0.7371 -0.3732
 1052SOL    HW1 3197   3.086   1.022   0.637 -1.2515  1.8595  0.0179
 1052SOL    HW2 3198   2.981   1.023   0.746 -0.5622 -1.4223  0.8093
 1053SOL     OW 3199   3.649   1.523   0.467  0.0915 -0.2345 -0.2616
 1053SOL    HW1 3200   3.623   1.614   0.452 -0.7031 -0.5578 -0.8483
 1053SOL    HW2 3201   3.580   1.487   0.522  0.6332 -0.3674  0.3435
 1054SOL     OW 3202   2.270   1.672   2.082  0.4115 -0.3697  0.5081
 1054SOL    HW1 3203   2.266   1.579   2.104  1.7804 -0.3045  1.0783
 1054SOL    HW2 3204   2.185   1.690   2.042  0.4996 -2.0888 -0.5355
 1055SOL     OW 3205   1.825   0.923   0.604  0.3152  0.1179 -0.1252
 1055SOL    HW1 3206   1.798   1.007   0.567  0.0498  0.0975  0.0182
 1055SOL    HW2 3207   1.817   0.934   0.698  1.3488  0.2891 -0.0481
 1056SOL     OW 3208   2.484   1.443   1.438 -0.7895  0.2945 -0.4021
 1056SOL    HW1 3209   2.436   1.455   1.357 -0.0467  0.6238 -0.8010
 1056SOL    HW2 3210   2.459   1.518   1.492 -0.3368  0.7491 -0.8092
 1057SOL     OW 3211   3.387   4.384   1.235  0.5535  0.3130  0.2609
 1057SOL    HW1 3212   3.374   4.474   1.205 -0.8284 -0.2943 -1.1180
 1057SOL    HW2 3213   3.466   4.388   1.289  0.6094  2.3143  0.1136
 1058SOL     OW 3214   2.611   4.540   0.922  0.7291 -0.9753  0.7425
 1058SOL    HW1 3215   2.633   4.633   0.928  0.1482 -0.8719  1.3930
 1058SOL    HW2 3216   2.518   4.535   0.946  0.3662 -1.5582 -0.6968
 1059SOL     OW 3217   3.552   1.660   0.875  0.3551  0.0773  0.3283
 1059SOL    HW1 3218   3.530   1.642   0.967 -0.5173 -0.8985 -0.0475
 1059SOL    HW2 3219   3.578   1.574   0.840  0.0555  0.3178 -0.4967
 1060SOL     OW 3220   2.149   4.558   1.419 -0.1138 -0.4598 -0.1957
 1060SOL    HW1 3221   2.236   4.535   1.454 -0.6925 -2.2727  0.1847
 1060SOL    HW2 3222   2.123   4.635   1.469  1.1929  0.0130 -0.1924
 1061SOL     OW 3223   2.866   1.409   0.872  0.2929  0.0055 -0.1919
 1061SOL    HW1 3224   2.818   1.473   0.925  0.2858  0.2115 -0.4433
 1061SOL    HW2 3225   2.946   1.392   0.922  0.5130  0.5651 -0.3396
 1062SOL     OW 3226   3.627   4.870   1.369 -0.2933  0.6876 -0.5337
 1062SOL    HW1 3227   3.596   4.812   1.439 -0.8365 -0.1916 -1.4720
 1062SOL    HW2 3228   3.605   4.823   1.288  2.7587  0.3695 -1.2881
 1063SOL     OW 3229   3.038   4.421   1.129  0.1818  0.1750  0.2319
 1063SOL    HW1 3230   3.048   4.501   1.181 -0.8811  0.3288  0.2203
 1063SOL    HW2 3231   2.944   4.413   1.116  0.4381  1.0777 -3.1063
 1064SOL     OW 3232   2.674   1.832   1.177  0.6903  0.0454 -0.5494
 1064SOL    HW1 3233   2.709   1.891   1.244 -0.1874  0.0228 -0.0670
 1064SOL    HW2 3234   2.735   1.841   1.103  0.9063  1.0802 -0.2529
 1065SOL     OW 3235   3.537   0.624   0.685  0.1436 -0.6790  0.2602
 1065SOL    HW1 3236   3.464   0.603   0.626 -0.0824 -1.8699  0.9319
 1065SOL    HW2 3237   3.499   0.617   0.773 -0.3681  4.0751  0.6573
 1066SOL     OW 3238   3.886   4.681   1.002  0.7143  0.5314  0.2429
 1066SOL    HW1 3239   3.860   4.589   1.002  0.6230  0.5523 -0.7401
 1066SOL    HW2 3240   3.804   4.730   1.007  0.7054  0.5704 -0.2882
 1067SOL     OW 3241   2.380   0.601   0.476  0.2043  0.3931  0.2939
 1067SOL    HW1 3242   2.434   0.602   0.555 -0.8150  1.9949  1.0301
 1067SOL    HW2 3243   2.290   0.593   0.509 -0.0981 -1.9514 -0.8863
 1068SOL     OW 3244   2.480   4.874   1.576  0.9305  0.3248 -0.1261
 1068SOL    HW1 3245   2.479   4.948   1.637  0.6586  0.4026 -0.2253
 1068SOL    HW2 3246   2.391   4.868   1.543  0.6503 -0.7971  0.7679
 1069SOL     OW 3247   2.054   4.160   2.672 -0.4211  0.4177  0.3557
 1069SOL    HW1 3248   2.122   4.115   2.622 -0.3083  0.9752  0.0087
 1069SOL    HW2 3249   2.025   4.095   2.736  0.0823  0.0115  0.1753
 1070SOL     OW 3250   6.110   4.638   2.639 -0.3030  0.1915 -0.4707
 1070SOL    HW1 3251   6.048   4.566   2.630  1.6693 -1.9873  1.8495
 1070SOL    HW2 3252   6.195   4.600   2.617  0.6212  2.2661 -0.7550
 1071SOL     OW 3253   0.224   3.477   0.002 -1.2403 -0.2383 -0.4840
 1071SOL    HW1 3254   0.317   3.456   0.006 -1.5081 -1.2413  2.1997
 1071SOL    HW2 3255   0.219   3.569   0.029 -1.0452 -0.1370 -0.7807
 1072SOL     OW 3256   3.181   1.998   2.485  0.0774  0.5212  0.5895
 1072SOL    HW1 3257   3.201   1.989   2.392  0.4264  2.2283  0.4521
 1072SOL    HW2 3258   3.096   2.042   2.487 -0.4867 -0.5725  1.0984
 1073SOL     OW 3259   3.036   5.798   2.443  0.0524  0.1941  0.2940
 1073SOL    HW1 3260   2.980   5.852   2.387 -2.1146 -0.4136  1.7481
 1073SOL    HW2 3261   3.085   5.861   2.497 -0.7994  0.7447  0.4376
 1074SOL     OW 3262   3.821   5.286   1.942  0.0765 -0.2687  0.0736
 1074SOL    HW1 3263   3.822   5.230   2.019 -0.8116  2.0888  1.9278
 1074SOL    HW2 3264   3.909   5.325   1.939 -0.2719  0.5728  0.6431
 1075SOL     OW 3265   2.724   5.304   2.703  0.0410 -0.2870  0.1284
 1075SOL    HW1 3266   2.686   5.310   2.615  0.2657 -0.8268 -0.0075
 1075SOL    HW2 3267   2.808   5.350   2.695 -0.9239  1.6483  0.6428
 1076SOL     OW 3268   2.822   5.059   2.310  0.1606  0.5283 -0.0699
 1076SOL    HW1 3269   2.825   4.964   2.313  1.3925  0.5329 -0.6055
 1076SOL    HW2 3270   2.914   5.086   2.307 -0.0871  1.8017  1.9812
 1077SOL     OW 3271   2.547   5.860   2.548  0.1823 -0.3561 -0.2314
 1077SOL    HW1 3272   2.472   5.879   2.493 -1.4169  1.3704  2.3183
 1077SOL    HW2 3273   2.512   5.802   2.616  1.3079 -0.0034  0.6820
 1078SOL     OW 3274   3.378   5.271   2.529 -0.1102  0.4501  0.0836
 1078SOL    HW1 3275   3.423   5.250   2.447 -0.1621  0.2307  0.1115
 1078SOL    HW2 3276   3.449   5.294   2.589  0.0064 -0.3527  0.2637
 1079SOL     OW 3277   1.912   1.990   2.353 -0.3715  0.3244 -0.0884
 1079SOL    HW1 3278   1.968   1.959   2.424 -1.9192 -1.5190  0.4028
 1079SOL    HW2 3279   1.933   2.083   2.345  1.0196  0.2115  1.6666
 1080SOL     OW 3280   2.079   1.995   2.571 -0.5114  0.7124 -0.6461
 1080SOL    HW1 3281   2.172   2.008   2.554 -0.0894 -1.2755 -0.1406
 1080SOL    HW2 3282   2.073   1.980   2.665 -1.2978  0.5735 -0.7097
 1081SOL     OW 3283   2.644   5.269   2.445  0.0839 -0.4236 -0.0116
 1081SOL    HW1 3284   2.707   5.204   2.414  1.3097 -0.5764  2.5377
 1081SOL    HW2 3285   2.576   5.218   2.489  0.5854 -0.0911  1.2075
 1082SOL     OW 3286   2.394   4.897   2.446  0.1801 -0.5771 -0.4656
 1082SOL    HW1 3287   2.309   4.876   2.408 -0.9823 -2.1008  2.6135
 1082SOL    HW2 3288   2.392   4.991   2.461 -0.9372 -0.5753 -0.5513
 1083SOL     OW 3289   1.815   4.946   1.813  0.3398 -0.0220 -0.4620
 1083SOL    HW1 3290   1.844   5.013   1.874  0.2686  0.7117 -1.2160
 1083SOL    HW2 3291   1.819   4.865   1.863  0.2628  0.5623  0.5179
 1084SOL     OW 3292   3.594   2.153   1.714  0.3530 -0.9221 -0.5471
 1084SOL    HW1 3293   3.581   2.110   1.798  0.4825 -0.4102 -0.2590
 1084SOL    HW2 3294   3.510   2.144   1.669 -1.0070  1.9790  1.1241
 1085SOL     OW 3295   1.710   1.658   2.113 -0.5265  0.1368  0.2043
 1085SOL    HW1 3296   1.662   1.578   2.136  2.3966 -1.7665  0.2074
 1085SOL    HW2 3297   1.735   1.646   2.022 -0.1558  1.1443  0.1605
 1086SOL     OW 3298   2.947   5.495   2.679  0.0615 -0.1099 -0.8760
 1086SOL    HW1 3299   3.005   5.470   2.608  1.0582  1.8371 -0.8251
 1086SOL    HW2 3300   2.898   5.570   2.645 -0.6104 -0.1572 -0.0558
 1087SOL     OW 3301   3.539   5.584   2.452  0.1180 -0.6522  0.4327
 1087SOL    HW1 3302   3.503   5.609   2.367  0.6519 -2.6363 -0.4242
 1087SOL    HW2 3303   3.475   5.616   2.515 -0.4409  0.6061 -0.7134
 1088SOL     OW 3304   2.828   1.797   2.504  0.7060 -0.1497  0.3404
 1088SOL    HW1 3305   2.773   1.853   2.449  0.8069  0.6257  1.0065
 1088SOL    HW2 3306   2.898   1.768   2.446  0.5703  0.2934 -0.0562
 1089SOL     OW 3307   2.642   5.065   2.819  0.2387  0.3491 -0.1848
 1089SOL    HW1 3308   2.614   5.001   2.754  1.9068  0.7770 -1.4036
 1089SOL    HW2 3309   2.647   5.148   2.772 -1.8816  1.4548  1.3714
 1090SOL     OW 3310   2.311   4.453   2.440 -0.2080  0.2611  0.5367
 1090SOL    HW1 3311   2.233   4.402   2.463 -1.2389  1.3780 -0.3288
 1090SOL    HW2 3312   2.370   4.390   2.398 -2.1609  0.0166 -2.1122
 1091SOL     OW 3313   3.334   1.662   2.263 -1.0479  0.0584  0.4514
 1091SOL    HW1 3314   3.425   1.633   2.270 -0.6325  0.8916 -1.0515
 1091SOL    HW2 3315   3.283   1.581   2.270 -0.0585 -0.7435 -1.0859
 1092SOL     OW 3316   3.187   5.947   2.668 -0.1384 -0.0756 -0.3573
 1092SOL    HW1 3317   3.156   5.977   2.754  0.1253 -1.4372  0.2425
 1092SOL    HW2 3318   3.260   6.006   2.648 -0.8665  0.9217 -0.1523
 1093SOL     OW 3319   3.388   2.312   2.344 -0.0955 -0.2332  0.2979
 1093SOL    HW1 3320   3.367   2.296   2.436  0.6890  0.5434  0.6295
 1093SOL    HW2 3321   3.417   2.227   2.311 -2.4073 -1.0338  0.1605
 1094SOL     OW 3322   2.378   5.242   2.051 -0.1185 -0.3379  0.1642
 1094SOL    HW1 3323   2.310   5.186   2.015 -1.6229 -0.4090  2.8469
 1094SOL    HW2 3324   2.457   5.188   2.050 -0.6964 -1.1882 -0.6258
 1095SOL     OW 3325   3.057   5.105   2.792 -0.1806  0.0396 -0.4827
 1095SOL    HW1 3326   3.036   5.149   2.710  0.6168  3.5706  1.0243
 1095SOL    HW2 3327   3.147   5.133   2.812 -0.9145  0.6871  2.3405
 1096SOL     OW 3328   3.566   2.042   1.957  0.8187  0.2010  0.2559
 1096SOL    HW1 3329   3.590   2.058   2.048  2.2717 -0.4470 -0.0030
 1096SOL    HW2 3330   3.594   1.953   1.939 -1.0939 -0.3310 -0.3170
 1097SOL     OW 3331   3.100   4.875   2.488 -0.0558 -0.2281 -0.0412
 1097SOL    HW1 3332   3.063   4.853   2.573 -0.5706 -0.7490 -0.3941
 1097SOL    HW2 3333   3.037   4.842   2.425  0.8135 -0.7522 -0.6518
 1098SOL     OW 3334   2.037   5.170   2.892 -0.2703  0.2438 -0.3618
 1098SOL    HW1 3335   2.079   5.101   2.841  0.3088 -0.1588  0.6259
 1098SOL    HW2 3336   2.012   5.128   2.974 -2.1550  0.6093 -0.7006
 1099SOL     OW 3337   2.919   4.326   2.272 -0.0487 -0.6026 -0.4895
 1099SOL    HW1 3338   2.861   4.346   2.198  0.5322  0.6659 -0.6235
 1099SOL    HW2 3339   2.979   4.400   2.276 -0.2022 -0.5317  1.3931
 1100SOL     OW 3340   3.345   5.776   2.504  0.7627  0.3812 -0.4928
 1100SOL    HW1 3341   3.382   5.863   2.494 -1.0192  1.1231 -1.1000
 1100SOL    HW2 3342   3.315   5.773   2.595  1.8427 -0.0522 -0.1351
 1101SOL     OW 3343   2.341   4.948   2.721  0.0352  0.3860  0.3354
 1101SOL    HW1 3344   2.249   4.956   2.745 -0.6091  1.3281 -2.1205
 1101SOL    HW2 3345   2.344   4.876   2.658  1.1854 -0.3693  1.2071
 1102SOL     OW 3346   3.213   1.820   1.615 -0.4927  0.2571 -0.3775
 1102SOL    HW1 3347   3.229   1.728   1.595 -0.5928 -0.3239  1.9427
 1102SOL    HW2 3348   3.117   1.827   1.616 -0.5014  0.7202 -1.7350
 1103SOL     OW 3349   2.491   6.086   3.006 -0.5636 -0.6094 -0.0845
 1103SOL    HW1 3350   2.517   6.011   2.951  1.1131  0.1835 -0.4534
 1103SOL    HW2 3351   2.422   6.129   2.956  0.9896  0.1483 -1.7057
 1104SOL     OW 3352   3.368   5.600   2.940  0.1782  0.2495  0.0967
 1104SOL    HW1 3353   3.410   5.644   2.866 -0.5831  1.8190  0.5372
 1104SOL    HW2 3354   3.300   5.545   2.901 -2.1657  3.1876 -0.4111
 1105SOL     OW 3355   2.368   5.456   1.878  0.3804 -0.0272 -0.3717
 1105SOL    HW1 3356   2.458   5.436   1.852 -0.1176 -0.1684 -2.1046
 1105SOL    HW2 3357   2.343   5.383   1.935  1.8047  0.7456  1.3336
 1106SOL     OW 3358   3.672   5.187   2.846 -0.0299  0.2358 -0.4993
 1106SOL    HW1 3359   3.665   5.237   2.927  0.0146  0.6880 -0.7724
 1106SOL    HW2 3360   3.618   5.235   2.783  0.6550  0.3892 -0.9839
 1107SOL     OW 3361   3.444   1.780   1.403  1.1897 -0.1395  0.0479
 1107SOL    HW1 3362   3.368   1.836   1.390  1.9142  0.5299 -1.5806
 1107SOL    HW2 3363   3.516   1.826   1.359  2.5777 -0.6968  1.6283
 1108SOL     OW 3364   3.958   1.692   1.571 -0.0584  0.1689  0.1019
 1108SOL    HW1 3365   3.888   1.628   1.558 -0.6486  0.8901 -0.3420
 1108SOL    HW2 3366   4.027   1.643   1.614 -1.7746 -0.0153  2.8924
 1109SOL     OW 3367   2.419   1.946   2.548 -0.2829  0.2134  0.3408
 1109SOL    HW1 3368   2.495   2.004   2.553  0.0031 -0.1091 -0.1867
 1109SOL    HW2 3369   2.430   1.899   2.466 -0.2459 -0.9598  1.0040
 1110SOL     OW 3370   3.348   4.654   2.350  0.2308  0.0607 -0.2828
 1110SOL    HW1 3371   3.334   4.640   2.256 -1.5038  0.7514 -0.1572
 1110SOL    HW2 3372   3.397   4.736   2.355  3.5014 -1.6894 -0.6689
 1111SOL     OW 3373   3.018   6.157   2.906  0.0556 -0.5668 -0.0520
 1111SOL    HW1 3374   2.962   6.103   2.851 -0.4634  0.8183 -0.9606
 1111SOL    HW2 3375   3.071   6.208   2.845  1.1086 -0.6206  0.7792
 1112SOL     OW 3376   2.118   5.207   2.309 -0.6241  0.3129 -0.0256
 1112SOL    HW1 3377   2.127   5.140   2.242 -1.4304  0.4084 -0.2386
 1112SOL    HW2 3378   2.105   5.158   2.391  1.5107  0.1726  0.2720
 1113SOL     OW 3379   2.650   4.452   1.799 -0.2715 -0.1378  0.5436
 1113SOL    HW1 3380   2.642   4.366   1.759  1.2525 -0.3839  0.6918
 1113SOL    HW2 3381   2.716   4.497   1.745  1.4265 -0.2871  2.3774
 1114SOL     OW 3382   0.748   3.579   0.193 -0.1174  0.0649 -0.5484
 1114SOL    HW1 3383   0.784   3.616   0.113 -1.8561  1.9928 -0.5124
 1114SOL    HW2 3384   0.656   3.604   0.192  0.0556  1.3644  2.6764
 1115SOL     OW 3385   2.856   4.586   2.616 -0.2529 -0.0151  0.1168
 1115SOL    HW1 3386   2.930   4.558   2.561 -0.3083  1.0202 -0.4981
 1115SOL    HW2 3387   2.889   4.661   2.665 -0.1730 -0.9853  1.6153
 1116SOL     OW 3388   2.677   4.390   2.068  0.2200  0.0244 -0.4865
 1116SOL    HW1 3389   2.591   4.350   2.084  0.5741 -0.4695  0.2688
 1116SOL    HW2 3390   2.690   4.381   1.973 -0.0488 -0.9963 -0.4492
 1117SOL     OW 3391   3.320   1.247   1.762 -0.1684  0.1873 -0.1848
 1117SOL    HW1 3392   3.339   1.232   1.670 -0.5680 -1.2126 -0.0613
 1117SOL    HW2 3393   3.307   1.159   1.799  2.0600  0.5191  1.6582
 1118SOL     OW 3394   2.085   4.716   1.658 -0.5786  0.3845 -0.8981
 1118SOL    HW1 3395   2.164   4.762   1.630 -1.1349  1.4784 -0.7398
 1118SOL    HW2 3396   2.077   4.737   1.751  1.1404 -3.0513  0.2082
 1119SOL     OW 3397   2.250   4.619   2.225  0.1934  0.0380 -0.3077
 1119SOL    HW1 3398   2.328   4.640   2.172  0.8324 -1.7923 -0.1772
 1119SOL    HW2 3399   2.285   4.586   2.307 -0.7629  0.1366  0.1510
 1120SOL     OW 3400   3.026   1.914   1.847 -0.2909 -0.2328  0.3155
 1120SOL    HW1 3401   3.067   1.839   1.890 -0.1823 -0.7250 -0.6111
 1120SOL    HW2 3402   3.099   1.973   1.829 -0.6513  1.2049  3.0963
 1121SOL     OW 3403   2.384   5.670   2.220 -0.2318 -0.1024  0.1518
 1121SOL    HW1 3404   2.356   5.579   2.215  0.4808 -0.3286  0.0841
 1121SOL    HW2 3405   2.404   5.694   2.130  1.0280 -0.3693  0.3348
 1122SOL     OW 3406   3.230   6.240   2.746  0.2000  0.2675  0.3006
 1122SOL    HW1 3407   3.237   6.263   2.653  1.5434  0.4724  0.4268
 1122SOL    HW2 3408   3.279   6.309   2.791  0.3117 -0.3156  1.0838
 1123SOL     OW 3409   3.026   4.602   1.820  0.2622  0.6362 -0.5398
 1123SOL    HW1 3410   3.026   4.630   1.912  0.5565 -0.3315 -0.2353
 1123SOL    HW2 3411   2.978   4.519   1.821 -0.4494  1.0275 -1.3937
 1124SOL     OW 3412   4.377   2.880   0.361  0.1858 -0.3489 -0.1116
 1124SOL    HW1 3413   4.364   2.887   0.267  1.4270  2.0168 -0.1701
 1124SOL    HW2 3414   4.444   2.813   0.372  0.6596 -0.0251 -0.9820
 1125SOL     OW 3415   2.816   4.801   2.390  0.2965 -0.1759  0.2007
 1125SOL    HW1 3416   2.850   4.747   2.462  0.6937  0.6817  0.6773
 1125SOL    HW2 3417   2.762   4.741   2.339  0.2707 -0.8915  1.0313
 1126SOL     OW 3418   3.109   4.567   2.492  0.1298  0.8911  1.2544
 1126SOL    HW1 3419   3.176   4.615   2.444 -0.1392  1.1718  1.1508
 1126SOL    HW2 3420   3.155   4.493   2.532  0.2219  0.2162 -0.0620
 1127SOL     OW 3421   3.238   5.400   2.811 -0.1273  0.3487  0.4810
 1127SOL    HW1 3422   3.276   5.322   2.851 -1.0438 -0.0344  0.6205
 1127SOL    HW2 3423   3.157   5.370   2.770  0.5771  0.8017 -1.3450
 1128SOL     OW 3424   3.743   5.545   2.112  0.3445  0.2832  0.2733
 1128SOL    HW1 3425   3.654   5.578   2.128 -0.0283 -0.2636 -0.6205
 1128SOL    HW2 3426   3.766   5.580   2.026  0.4018 -0.8034 -0.1674
 1129SOL     OW 3427   2.379   5.903   2.345 -0.2448  0.0826 -0.0704
 1129SOL    HW1 3428   2.318   5.965   2.304 -2.2233 -0.7404  1.4977
 1129SOL    HW2 3429   2.357   5.818   2.306 -1.0979 -0.4531  1.5187
 1130SOL     OW 3430   3.360   1.881   2.039 -0.3840 -0.0643 -0.2245
 1130SOL    HW1 3431   3.410   1.809   2.078 -1.7148 -0.2764  1.1957
 1130SOL    HW2 3432   3.425   1.950   2.026  0.2849 -0.2415  1.7810
 1131SOL     OW 3433   3.307   4.811   1.651 -0.0113  0.0354 -0.7619
 1131SOL    HW1 3434   3.283   4.721   1.671 -1.0441  0.2583 -0.9198
 1131SOL    HW2 3435   3.315   4.854   1.736 -1.5428  0.2760 -0.7058
 1132SOL     OW 3436   2.414   4.582   1.822  0.0728  0.1357 -0.1850
 1132SOL    HW1 3437   2.494   4.530   1.829 -0.6429 -0.9268  0.4099
 1132SOL    HW2 3438   2.439   4.669   1.851  1.2603  0.1127 -1.0279
 1133SOL     OW 3439   1.111   3.401   0.130  0.3815  0.6325  0.0005
 1133SOL    HW1 3440   1.064   3.319   0.117 -2.1018  2.1016 -1.1527
 1133SOL    HW2 3441   1.148   3.420   0.044 -1.0256  1.7756 -0.3957
 1134SOL     OW 3442   3.069   5.588   2.116 -0.8774  0.5769  0.5519
 1134SOL    HW1 3443   3.095   5.566   2.205 -3.2755 -1.3867  0.8714
 1134SOL    HW2 3444   3.052   5.504   2.074  1.3274  1.3554 -2.2208
 1135SOL     OW 3445   2.402   4.987   2.995  0.3677 -0.3717 -0.2564
 1135SOL    HW1 3446   2.411   5.079   3.020  2.7115 -0.8371  0.8455
 1135SOL    HW2 3447   2.431   4.984   2.904 -0.1622  0.0136 -0.4484
 1136SOL     OW 3448   6.322   6.156   2.982 -0.3385  0.1910  0.1599
 1136SOL    HW1 3449   6.295   6.084   3.039  1.0775  0.6148  1.4248
 1136SOL    HW2 3450   6.379   6.116   2.916  0.7742  0.1758  1.1013
 1137SOL     OW 3451   2.172   5.703   2.002 -0.0323  0.3603 -0.2270
 1137SOL    HW1 3452   2.133   5.616   1.997 -1.8508  1.1191 -0.2748
 1137SOL    HW2 3453   2.229   5.709   1.925 -0.3393 -0.5824 -0.5369
 1138SOL     OW 3454   2.079   4.912   2.794  0.0886  0.0774 -0.0576
 1138SOL    HW1 3455   2.085   4.845   2.862  0.2133 -1.3136 -1.3639
 1138SOL    HW2 3456   1.986   4.932   2.787 -0.0281 -0.4812 -0.1226
 1139SOL     OW 3457   3.312   5.699   2.255  0.0516 -0.1442  0.1540
 1139SOL    HW1 3458   3.323   5.734   2.344  0.1080  0.2577 -0.0095
 1139SOL    HW2 3459   3.243   5.633   2.264  0.5731 -0.6386  0.6372
 1140SOL     OW 3460   2.802   5.737   2.573  0.5315  0.1655  0.2454
 1140SOL    HW1 3461   2.726   5.753   2.517  0.3693  0.2245  0.4829
 1140SOL    HW2 3462   2.877   5.757   2.517  0.3561  0.9464  0.2705
 1141SOL     OW 3463   3.456   5.701   2.010  0.1972 -0.0148 -0.4748
 1141SOL    HW1 3464   3.402   5.639   1.962  0.2474 -0.1232 -0.3921
 1141SOL    HW2 3465   3.400   5.732   2.081  0.3627 -0.4030 -0.1718
 1142SOL     OW 3466   2.198   5.965   2.847 -0.3215  0.1103  0.0224
 1142SOL    HW1 3467   2.157   5.890   2.806 -0.8416 -1.2540  2.8085
 1142SOL    HW2 3468   2.273   5.986   2.790 -1.8593 -0.5633 -2.3851
 1143SOL     OW 3469   2.533   4.648   2.420 -0.4362 -0.3309 -0.6047
 1143SOL    HW1 3470   2.500   4.738   2.416  0.1535 -0.0410  0.7252
 1143SOL    HW2 3471   2.465   4.600   2.468 -0.6683 -0.5827 -1.1628
 1144SOL     OW 3472   0.604   2.700   0.099 -0.3027  0.3349  0.4467
 1144SOL    HW1 3473   0.644   2.752   0.029  0.6358  0.5002  1.0788
 1144SOL    HW2 3474   0.547   2.762   0.145 -0.1584  0.4814  0.4279
 1145SOL     OW 3475   2.906   4.730   2.020 -0.2881 -0.7041 -0.5544
 1145SOL    HW1 3476   2.831   4.684   2.058  0.1643  0.3446  1.7939
 1145SOL    HW2 3477   2.869   4.810   1.983 -0.4512 -0.5891 -0.1496
 1146SOL     OW 3478   4.227   3.391   0.114  0.0845 -0.0939  0.3945
 1146SOL    HW1 3479   4.260   3.307   0.148  0.1280  0.1605  0.9908
 1146SOL    HW2 3480   4.268   3.457   0.170  1.5422  0.4612 -1.2390
 1147SOL     OW 3481   2.562   4.790   2.962 -0.5219 -0.1192  0.0743
 1147SOL    HW1 3482   2.629   4.799   3.029  0.6834  1.0602 -1.2214
 1147SOL    HW2 3483   2.504   4.865   2.976 -0.4330 -0.0335 -0.0116
 1148SOL     OW 3484   2.090   4.257   2.400  0.4831  0.4998  0.0684
 1148SOL    HW1 3485   2.045   4.236   2.482 -1.4371  0.9669 -0.7856
 1148SOL    HW2 3486   2.147   4.182   2.383  1.0681  0.4886  1.9057
 1149SOL     OW 3487   3.639   5.031   2.134  0.2457  0.2327  0.3001
 1149SOL    HW1 3488   3.714   5.041   2.075 -0.2881  2.5764 -0.0675
 1149SOL    HW2 3489   3.676   5.040   2.222  0.6979 -0.9643  0.2537
 1150SOL     OW 3490   2.947   4.808   2.712 -0.4841  0.5987 -0.1702
 1150SOL    HW1 3491   3.028   4.764   2.738  0.0124  0.6276 -1.5853
 1150SOL    HW2 3492   2.946   4.888   2.764 -0.1813  0.0604  0.6841
 1151SOL     OW 3493   3.490   4.828   1.998  0.7592  0.3586  0.0539
 1151SOL    HW1 3494   3.543   4.886   2.053 -0.3249  0.7887  0.6738
 1151SOL    HW2 3495   3.528   4.741   2.010 -0.0285  0.2681  2.2869
 1152SOL     OW 3496   3.104   4.841   2.176  0.0208 -0.2072  0.7329
 1152SOL    HW1 3497   3.022   4.801   2.147 -0.2725  0.5174  0.5313
 1152SOL    HW2 3498   3.172   4.780   2.148 -0.5179 -1.4633  2.0427
 1153SOL     OW 3499   2.867   6.008   2.739 -0.2333  0.0915  0.0060
 1153SOL    HW1 3500   2.841   5.916   2.727  0.5131  0.0183 -1.1386
 1153SOL    HW2 3501   2.842   6.052   2.658  0.9637  0.5281 -0.1456
 1154SOL     OW 3502   2.229   5.295   2.681 -0.1464  0.0744  0.2056
 1154SOL    HW1 3503   2.133   5.287   2.683 -0.2224  0.5776 -0.7114
 1154SOL    HW2 3504   2.246   5.381   2.718 -0.1208  0.3512 -0.4279
 1155SOL     OW 3505   2.041   4.608   2.601  0.0442  0.2768  0.0464
 1155SOL    HW1 3506   2.117   4.650   2.560  0.6012 -0.7963 -0.0725
 1155SOL    HW2 3507   2.080   4.539   2.656 -0.8209  0.1268  0.4805
 1156SOL     OW 3508   2.075   5.788   2.238 -0.4459 -0.0038  0.2981
 1156SOL    HW1 3509   2.091   5.755   2.149 -0.9603 -0.5866  0.4162
 1156SOL    HW2 3510   2.042   5.876   2.225  1.3584  0.6763 -0.0092
 1157SOL     OW 3511   2.283   2.411   2.608  0.0808 -0.2039  0.3413
 1157SOL    HW1 3512   2.229   2.396   2.685  0.4718  1.3252  0.9424
 1157SOL    HW2 3513   2.221   2.443   2.541 -0.0582 -0.3279  0.4105
 1158SOL     OW 3514   2.689   6.219   2.865 -0.5263  0.1055  0.0920
 1158SOL    HW1 3515   2.706   6.165   2.787  2.7843  0.4714  0.3950
 1158SOL    HW2 3516   2.622   6.171   2.913 -0.9651 -1.3525 -1.8309
 1159SOL     OW 3517   6.156   4.905   2.679 -0.2522 -0.2893  0.2918
 1159SOL    HW1 3518   6.106   4.904   2.760  0.8730  0.9411  1.0450
 1159SOL    HW2 3519   6.166   4.813   2.656 -0.3404 -0.6832  1.7209
 1160SOL     OW 3520   3.242   5.066   2.312 -0.3369  0.2157  0.1322
 1160SOL    HW1 3521   3.273   5.006   2.243 -2.7594 -0.3377 -0.5627
 1160SOL    HW2 3522   3.187   5.011   2.368 -2.3273  1.6768 -0.3168
 1161SOL     OW 3523   2.520   4.861   1.963 -0.4648  0.0591 -0.3470
 1161SOL    HW1 3524   2.572   4.887   2.040 -0.7583  1.9234 -0.7300
 1161SOL    HW2 3525   2.585   4.833   1.899 -0.2346 -1.9174  0.6751
 1162SOL     OW 3526   3.420   5.207   2.174  0.1392  0.0470  0.2133
 1162SOL    HW1 3527   3.358   5.185   2.244 -0.8130 -0.0191 -0.6138
 1162SOL    HW2 3528   3.470   5.126   2.160 -1.1498 -0.6496 -0.6231
 1163SOL     OW 3529   3.822   5.526   2.901  0.5214  0.0876  0.0054
 1163SOL    HW1 3530   3.819   5.467   2.826  1.8027  1.7954 -1.4812
 1163SOL    HW2 3531   3.907   5.509   2.941  0.1320 -0.3229  0.6819
 1164SOL     OW 3532   2.435   5.694   2.723 -0.4578  1.0064 -0.4855
 1164SOL    HW1 3533   2.406   5.607   2.694  0.2435  1.3610 -2.4475
 1164SOL    HW2 3534   2.367   5.724   2.782 -0.8080 -0.7999  0.0865
 1165SOL     OW 3535   3.453   4.345   2.229  0.0663 -0.2857  0.1726
 1165SOL    HW1 3536   3.515   4.416   2.208  0.2558 -0.5577 -0.1942
 1165SOL    HW2 3537   3.407   4.328   2.147 -0.3395 -0.2428  0.3885
 1166SOL     OW 3538   3.179   2.480   2.237 -0.0379  0.2233  0.0602
 1166SOL    HW1 3539   3.260   2.440   2.268  0.5392  1.2192 -0.1056
 1166SOL    HW2 3540   3.113   2.413   2.249  0.6195 -0.2510  1.1940
 1167SOL     OW 3541   2.841   5.667   2.854 -0.0776  0.0807  0.4513
 1167SOL    HW1 3542   2.898   5.612   2.801 -0.0702  0.1399  0.3983
 1167SOL    HW2 3543   2.771   5.694   2.795  0.0655  0.3523  0.4029
 1168SOL     OW 3544   2.920   1.770   1.637 -0.5193 -0.6544 -0.1387
 1168SOL    HW1 3545   2.832   1.734   1.647 -1.0778  0.6879  0.0159
 1168SOL    HW2 3546   2.934   1.821   1.717  1.0331 -2.0883  0.5546
 1169SOL     OW 3547   3.299   4.992   2.627 -0.1581  0.4271 -0.0179
 1169SOL    HW1 3548   3.360   4.995   2.553  0.4144  0.9366  0.4631
 1169SOL    HW2 3549   3.217   4.961   2.589  0.7985 -1.8117 -0.4085
 1170SOL     OW 3550   2.156   4.858   2.381  0.5338  0.1512  0.1326
 1170SOL    HW1 3551   2.098   4.934   2.390  1.7104  1.1770 -0.6423
 1170SOL    HW2 3552   2.118   4.807   2.310  0.2686  0.5293  0.0001
 1171SOL     OW 3553   2.737   1.391   1.571 -0.2472  0.0307  0.0872
 1171SOL    HW1 3554   2.648   1.381   1.537  0.2602 -0.9516 -1.0237
 1171SOL    HW2 3555   2.781   1.447   1.507 -0.0503  0.5371  0.6494
 1172SOL     OW 3556   3.089   5.530   2.381  0.0355 -0.5237 -0.6043
 1172SOL    HW1 3557   2.996   5.513   2.393 -0.2615  0.7807 -0.9220
 1172SOL    HW2 3558   3.102   5.618   2.417  1.5099 -1.3732  1.1021
 1173SOL     OW 3559   3.392   1.195   1.482 -0.0059  0.4506  0.0074
 1173SOL    HW1 3560   3.471   1.142   1.472 -0.0352  0.2061  1.0045
 1173SOL    HW2 3561   3.399   1.261   1.413  0.2137 -0.6073 -1.0280
 1174SOL     OW 3562   2.826   5.479   2.410  0.1192  0.0722 -0.0870
 1174SOL    HW1 3563   2.762   5.547   2.391  1.2268  0.9827 -0.7056
 1174SOL    HW2 3564   2.774   5.401   2.432 -1.1681  0.9872  0.1799
 1175SOL     OW 3565   3.158   4.686   2.801 -0.5395  0.2026 -0.5177
 1175SOL    HW1 3566   3.137   4.633   2.877 -0.5879  1.8288  0.6568
 1175SOL    HW2 3567   3.238   4.732   2.824 -0.7754  1.0343 -1.2810
 1176SOL     OW 3568   2.677   5.689   2.287  0.1238  0.2795 -0.3349
 1176SOL    HW1 3569   2.682   5.684   2.192 -0.0282 -2.5805 -0.2731
 1176SOL    HW2 3570   2.584   5.705   2.305 -0.3918 -1.9355 -0.7003
 1177SOL     OW 3571   2.138   5.628   2.451  0.2998  0.2539 -0.0730
 1177SOL    HW1 3572   2.115   5.682   2.375 -1.0186  0.4659  0.4411
 1177SOL    HW2 3573   2.208   5.571   2.420  0.8810  1.4195 -0.9783
 1178SOL     OW 3574   1.536   4.831   1.691 -0.3751  0.2760  0.6475
 1178SOL    HW1 3575   1.489   4.857   1.771 -0.6342 -0.2058  0.6577
 1178SOL    HW2 3576   1.612   4.888   1.689 -1.3046  1.5486  0.2664
 1179SOL     OW 3577   1.895   4.441   2.137  0.0245  0.2690  0.1856
 1179SOL    HW1 3578   1.886   4.409   2.047 -2.7465 -0.1159  0.5035
 1179SOL    HW2 3579   1.859   4.370   2.191  1.1682  0.7084  1.5908
 1180SOL     OW 3580   2.862   1.700   2.011  0.3588  0.4358 -0.2436
 1180SOL    HW1 3581   2.821   1.637   1.952 -0.6449  0.3234  0.5582
 1180SOL    HW2 3582   2.953   1.706   1.980  0.2275 -0.6870 -0.9015
 1181SOL     OW 3583   1.393   4.135   0.043  0.0414 -0.1977  0.4776
 1181SOL    HW1 3584   1.387   4.178  -0.042 -0.0515  0.2824  0.7231
 1181SOL    HW2 3585   1.364   4.045   0.027 -1.8190  0.3779  0.3821
 1182SOL     OW 3586   2.694   4.628   2.204  0.5447  0.0165  0.1099
 1182SOL    HW1 3587   2.707   4.547   2.154 -0.8450  0.1540 -0.5066
 1182SOL    HW2 3588   2.643   4.601   2.280  2.4710 -0.1535  1.4290
 1183SOL     OW 3589   2.255   5.447   2.234 -0.5400 -0.2300  0.2254
 1183SOL    HW1 3590   2.172   5.404   2.253 -1.1098 -0.0545 -1.6968
 1183SOL    HW2 3591   2.309   5.378   2.194  0.0979 -0.2234  1.0357
 1184SOL     OW 3592   1.427   3.403   0.371 -0.2396 -0.3418  0.1968
 1184SOL    HW1 3593   1.509   3.354   0.371  0.3787  0.6717  0.0248
 1184SOL    HW2 3594   1.399   3.403   0.280 -1.1298 -1.7826  0.4301
 1185SOL     OW 3595   2.497   1.421   1.985  0.1471  0.0113 -0.3070
 1185SOL    HW1 3596   2.590   1.437   1.972  0.3497 -0.7347  0.1575
 1185SOL    HW2 3597   2.473   1.360   1.915 -0.2416  1.0034 -1.0622
 1186SOL     OW 3598   2.383   2.136   2.825 -0.3757 -1.0675 -0.1595
 1186SOL    HW1 3599   2.322   2.194   2.779 -0.0982 -1.4891 -1.0850
 1186SOL    HW2 3600   2.327   2.072   2.868 -0.7293  0.2626  1.4558
 1187SOL     OW 3601   2.616   4.904   2.598 -0.0901  0.2270 -0.0986
 1187SOL    HW1 3602   2.526   4.901   2.567  0.2107  1.4304 -1.1579
 1187SOL    HW2 3603   2.667   4.867   2.526  0.4555  1.5461 -0.4227
 1188SOL     OW 3604   3.012   5.118   2.084  0.2466 -0.5269  0.3771
 1188SOL    HW1 3605   3.045   5.112   1.995  0.3150  0.8012  0.2884
 1188SOL    HW2 3606   3.067   5.058   2.135  3.0249  1.7171  0.2667
 1189SOL     OW 3607   3.485   2.081   2.586 -0.0722 -0.5723 -0.7386
 1189SOL    HW1 3608   3.464   2.168   2.620  0.8964 -1.1781  1.6305
 1189SOL    HW2 3609   3.495   2.094   2.492 -0.8391  1.6798 -0.5860
 1190SOL     OW 3610   2.585   5.853   2.895 -0.0364 -0.5740 -0.2698
 1190SOL    HW1 3611   2.655   5.803   2.938 -0.5386 -1.4260 -0.4138
 1190SOL    HW2 3612   2.567   5.804   2.815 -0.3500  0.0105 -0.5615
 1191SOL     OW 3613   2.108   4.773   1.949  0.5844  0.4468 -0.4014
 1191SOL    HW1 3614   2.173   4.749   2.015  1.2376 -1.3796 -1.6448
 1191SOL    HW2 3615   2.031   4.721   1.972 -0.2371  2.0221  0.6024
 1192SOL     OW 3616   2.101   4.717   2.994 -0.4697  0.1772  0.0219
 1192SOL    HW1 3617   2.052   4.635   2.985 -0.5294  0.0552  1.3181
 1192SOL    HW2 3618   2.191   4.689   3.009 -0.2948  0.3769 -0.6224
 1193SOL     OW 3619   3.178   2.008   2.207 -0.2214  0.0777 -0.4579
 1193SOL    HW1 3620   3.220   2.063   2.140  0.5258  0.5162  0.3426
 1193SOL    HW2 3621   3.222   1.923   2.199  0.8128  0.5082  0.3159
 1194SOL     OW 3622   2.654   4.044   2.615  0.0044 -0.0614 -0.0715
 1194SOL    HW1 3623   2.739   4.009   2.586  0.4742  0.0667  1.0766
 1194SOL    HW2 3624   2.660   4.138   2.600  0.3846  0.0506  0.7473
 1195SOL     OW 3625   2.773   5.638   1.989 -0.0578 -0.1762  0.1146
 1195SOL    HW1 3626   2.849   5.590   2.022 -0.3668 -1.6499 -1.1668
 1195SOL    HW2 3627   2.805   5.684   1.912 -0.7162 -2.0893 -1.4053
 1196SOL     OW 3628   3.186   4.315   2.018  0.5697  0.5734 -0.0673
 1196SOL    HW1 3629   3.195   4.243   2.080  0.0799 -0.5260 -1.2202
 1196SOL    HW2 3630   3.224   4.281   1.937 -0.1397  1.4208 -0.7773
 1197SOL     OW 3631   3.109   5.272   2.553  0.1161  0.3881  0.2913
 1197SOL    HW1 3632   3.085   5.294   2.463  2.0181 -0.5611 -0.5077
 1197SOL    HW2 3633   3.204   5.272   2.553  0.1668 -1.3432  1.8667
 1198SOL     OW 3634   3.642   5.117   2.402  0.2709  0.8584 -0.5342
 1198SOL    HW1 3635   3.651   5.211   2.416  0.3238  1.0223 -1.5553
 1198SOL    HW2 3636   3.704   5.078   2.464 -0.6424  1.4139  0.7716
 1199SOL     OW 3637   1.971   5.445   2.128 -0.8016  0.3750  0.4230
 1199SOL    HW1 3638   2.004   5.378   2.069 -2.8554 -1.9001  1.6590
 1199SOL    HW2 3639   1.903   5.490   2.078 -2.0859 -1.1164  0.7192
 1200SOL     OW 3640   2.882   5.956   2.284  0.2526  0.4381  0.0314
 1200SOL    HW1 3641   2.888   5.994   2.196  0.3022  2.0595  0.6847
 1200SOL    HW2 3642   2.799   5.910   2.285  1.4190 -1.8986 -1.6711
 1201SOL     OW 3643   1.968   2.311   0.064  0.1146  0.1717 -0.5635
 1201SOL    HW1 3644   2.051   2.312   0.112  0.2232 -1.8219 -0.6137
 1201SOL    HW2 3645   1.912   2.373   0.111 -0.0178 -2.1614  2.6583
 1202SOL     OW 3646   2.194   2.033   0.768  0.0568 -0.4631 -1.1211
 1202SOL    HW1 3647   2.194   2.071   0.856 -0.3725  0.4888 -1.5182
 1202SOL    HW2 3648   2.187   1.939   0.783 -2.1758 -0.2255 -0.1555
 1203SOL     OW 3649   1.893   2.233   0.469 -0.0008  0.0181  0.2623
 1203SOL    HW1 3650   1.857   2.231   0.558 -1.1782  0.4532 -0.1796
 1203SOL    HW2 3651   1.816   2.228   0.412  0.7198  0.0088 -0.7351
 1204SOL     OW 3652   2.284   3.474   1.526 -0.1190  0.2228  0.6275
 1204SOL    HW1 3653   2.312   3.524   1.602 -1.6129  1.9801  0.0965
 1204SOL    HW2 3654   2.191   3.455   1.542 -0.0454 -0.8079 -0.0382
 1205SOL     OW 3655   3.523   3.045   1.150 -0.0719  0.8499  0.4126
 1205SOL    HW1 3656   3.560   3.129   1.177  1.5201 -0.1122  1.3566
 1205SOL    HW2 3657   3.429   3.055   1.163  0.3063  1.5949  3.1527
 1206SOL     OW 3658   3.096   2.206   0.651  0.7654 -0.5661  0.1688
 1206SOL    HW1 3659   3.156   2.277   0.676 -0.3174  0.2680  0.4497
 1206SOL    HW2 3660   3.090   2.211   0.556 -0.3631  0.6149  0.2829
 1207SOL     OW 3661   3.735   2.532   0.493 -0.2545  0.1501 -0.8389
 1207SOL    HW1 3662   3.769   2.475   0.423  0.3060  0.8958 -1.1864
 1207SOL    HW2 3663   3.701   2.471   0.559  2.1638 -0.6974 -0.2435
 1208SOL     OW 3664   2.554   3.183   0.838  0.2297  0.1109  0.0464
 1208SOL    HW1 3665   2.558   3.214   0.929  1.5193  0.1145 -0.0018
 1208SOL    HW2 3666   2.625   3.229   0.794  1.6408 -2.2078 -0.2445
 1209SOL     OW 3667   2.887   2.426   1.729  0.1599  0.2028  0.1290
 1209SOL    HW1 3668   2.917   2.341   1.761 -0.0612  0.2635  0.4988
 1209SOL    HW2 3669   2.962   2.484   1.742  0.7294 -0.1973 -1.2285
 1210SOL     OW 3670   2.568   3.121   0.584 -0.3585  0.1131 -0.3215
 1210SOL    HW1 3671   2.486   3.074   0.567  0.4489 -1.0368 -1.1906
 1210SOL    HW2 3672   2.579   3.117   0.679  0.6515 -3.2149 -0.4732
 1211SOL     OW 3673   2.838   3.090   1.947  0.1473 -0.4259  0.2170
 1211SOL    HW1 3674   2.827   3.061   2.038 -3.5230 -0.5108 -0.1109
 1211SOL    HW2 3675   2.757   3.065   1.904  1.4456  0.3564 -2.9348
 1212SOL     OW 3676   2.057   3.334   0.530 -0.0324 -0.3780 -0.2181
 1212SOL    HW1 3677   2.014   3.258   0.492  0.2349  0.0202 -1.3269
 1212SOL    HW2 3678   2.123   3.361   0.466 -0.1449  0.8091  0.1311
 1213SOL     OW 3679   2.326   2.285   1.383 -0.5227 -0.2945 -0.3347
 1213SOL    HW1 3680   2.384   2.302   1.458  0.1872  1.2653 -1.1755
 1213SOL    HW2 3681   2.264   2.358   1.385 -1.6717 -1.2606 -0.2013
 1214SOL     OW 3682   3.395   2.388   0.197 -0.0217 -0.3516  0.4093
 1214SOL    HW1 3683   3.358   2.338   0.270 -0.4910 -0.9321 -0.2073
 1214SOL    HW2 3684   3.320   2.408   0.141  0.1974  0.8845  0.5449
 1215SOL     OW 3685   2.043   3.695   0.443 -0.0730 -0.1563 -0.0880
 1215SOL    HW1 3686   1.979   3.649   0.388  0.9671 -0.1783 -1.3262
 1215SOL    HW2 3687   2.017   3.672   0.532 -1.8733 -0.0448 -0.5333
 1216SOL     OW 3688   1.841   3.535   0.357 -0.6747  0.2423  0.3842
 1216SOL    HW1 3689   1.878   3.446   0.355 -1.8567 -0.2755  0.8555
 1216SOL    HW2 3690   1.779   3.536   0.284  0.7459  1.3370 -0.8518
 1217SOL     OW 3691   2.353   2.955   0.590  0.1135 -0.3894 -0.1935
 1217SOL    HW1 3692   2.384   2.887   0.650  0.6679 -1.5240 -1.7038
 1217SOL    HW2 3693   2.276   2.993   0.634  0.6360 -1.0113  1.3125
 1218SOL     OW 3694   2.555   3.451   1.798  0.4276 -0.0534 -0.3068
 1218SOL    HW1 3695   2.604   3.521   1.754  0.4836  0.1056  0.0089
 1218SOL    HW2 3696   2.587   3.371   1.756  3.6552 -0.3109  2.2549
 1219SOL     OW 3697   3.542   2.118   1.367 -0.2081 -0.3391  0.5505
 1219SOL    HW1 3698   3.564   2.039   1.317  0.6159 -0.1333  0.5813
 1219SOL    HW2 3699   3.499   2.084   1.445  1.5914 -0.8860  1.3590
 1220SOL     OW 3700   2.010   2.451   0.568  0.6598 -0.1370  0.0413
 1220SOL    HW1 3701   1.981   2.365   0.537  0.3254  0.1379 -0.4076
 1220SOL    HW2 3702   2.043   2.434   0.656  1.6072 -0.9234 -0.4370
 1221SOL     OW 3703   3.299   3.675   0.529 -0.7325 -0.2584  0.7052
 1221SOL    HW1 3704   3.350   3.745   0.569 -1.1886  1.2108 -1.1302
 1221SOL    HW2 3705   3.215   3.677   0.575 -0.3022 -0.4581  1.5060
 1222SOL     OW 3706   4.018   5.743   2.843 -0.5787  0.2015  0.1937
 1222SOL    HW1 3707   4.074   5.809   2.885 -0.3682  0.1028  0.0722
 1222SOL    HW2 3708   4.033   5.664   2.896 -0.3668  0.0958 -0.0229
 1223SOL     OW 3709   3.352   2.936   0.676  0.0416 -0.7937  0.5121
 1223SOL    HW1 3710   3.334   3.030   0.684 -1.5878 -1.0867  0.6719
 1223SOL    HW2 3711   3.377   2.909   0.764 -0.0031 -0.6116  0.5821
 1224SOL     OW 3712   3.617   3.038   0.472  0.2101  0.4716 -0.1863
 1224SOL    HW1 3713   3.584   2.948   0.469  2.7215 -0.5047 -1.1705
 1224SOL    HW2 3714   3.670   3.042   0.551 -0.1038  1.1789 -0.0044
 1225SOL     OW 3715   1.832   2.698   1.371 -0.3214  0.2009 -0.5028
 1225SOL    HW1 3716   1.865   2.684   1.282  0.8900  0.4109 -0.0954
 1225SOL    HW2 3717   1.878   2.775   1.402 -1.0011  0.3365  0.1937
 1226SOL     OW 3718   2.464   3.533   0.576 -0.0463 -0.1023 -0.2331
 1226SOL    HW1 3719   2.493   3.462   0.519 -2.4874 -0.3777 -1.2402
 1226SOL    HW2 3720   2.460   3.610   0.519  0.2553  0.2887  0.2660
 1227SOL     OW 3721   2.706   1.559   1.055 -0.3420 -0.1726  0.0478
 1227SOL    HW1 3722   2.643   1.595   0.993  0.9316  1.3918 -0.4138
 1227SOL    HW2 3723   2.692   1.610   1.135 -1.2646 -1.4763  0.7695
 1228SOL     OW 3724   2.188   2.709   0.843  0.3097 -0.4709 -0.1764
 1228SOL    HW1 3725   2.165   2.790   0.888 -0.5188 -0.7149 -0.1356
 1228SOL    HW2 3726   2.280   2.720   0.818  0.4770  0.0965  0.6454
 1229SOL     OW 3727   2.080   2.058   1.591  0.0725  0.3970 -0.0013
 1229SOL    HW1 3728   2.074   2.124   1.659  2.4044  1.4332 -0.6734
 1229SOL    HW2 3729   2.033   2.095   1.517  0.3612  0.7915  0.0078
 1230SOL     OW 3730   3.313   3.257   1.123  0.1800  0.4706 -0.1152
 1230SOL    HW1 3731   3.234   3.284   1.076  1.5912  1.9719 -1.8198
 1230SOL    HW2 3732   3.304   3.296   1.209 -1.1583  0.1911 -0.1166
 1231SOL     OW 3733   3.497   3.518   0.424 -0.0758  0.3851 -0.3921
 1231SOL    HW1 3734   3.414   3.560   0.448  0.0413  1.4459 -1.7411
 1231SOL    HW2 3735   3.527   3.477   0.506 -2.1193 -0.4169  0.0225
 1232SOL     OW 3736   3.334   2.256   0.441  0.2369 -0.0656  0.5174
 1232SOL    HW1 3737   3.394   2.200   0.490  1.1447 -0.3590 -0.8986
 1232SOL    HW2 3738   3.335   2.339   0.489  2.5667  0.2776  0.0097
 1233SOL     OW 3739   2.538   2.651   1.147 -0.4408 -0.0201  0.4447
 1233SOL    HW1 3740   2.575   2.609   1.225  1.1522  0.2613 -0.1176
 1233SOL    HW2 3741   2.446   2.627   1.149  0.2549 -3.1256  0.4658
 1234SOL     OW 3742   3.114   2.340   1.562 -0.6439  0.4538 -0.1420
 1234SOL    HW1 3743   3.025   2.305   1.561 -1.0057  1.3198  0.4587
 1234SOL    HW2 3744   3.141   2.336   1.654  0.5735 -1.2902 -0.5059
 1235SOL     OW 3745   2.859   3.165   1.453  0.0364 -0.5279 -0.2385
 1235SOL    HW1 3746   2.931   3.133   1.507  0.1238  1.5640  1.0098
 1235SOL    HW2 3747   2.888   3.153   1.363  1.9198  0.1772  0.2458
 1236SOL     OW 3748   3.004   1.967   1.160 -0.1680  0.6007 -0.0552
 1236SOL    HW1 3749   3.099   1.965   1.169 -0.0659  1.8178 -0.5899
 1236SOL    HW2 3750   2.986   1.912   1.084  0.1455  0.5988 -0.1296
 1237SOL     OW 3751   2.786   2.272   0.453 -0.2457 -0.4964  0.4161
 1237SOL    HW1 3752   2.798   2.179   0.472 -1.8226 -0.4340  2.1423
 1237SOL    HW2 3753   2.841   2.316   0.518  1.5446 -0.1629 -1.2481
 1238SOL     OW 3754   2.041   2.703   0.604 -0.4837 -0.0525  0.4906
 1238SOL    HW1 3755   2.035   2.610   0.583 -0.2841  0.0896 -0.1903
 1238SOL    HW2 3756   2.078   2.704   0.693 -0.9686 -0.6293  0.7105
 1239SOL     OW 3757   2.083   3.356   1.039  0.0438 -0.1290  0.4550
 1239SOL    HW1 3758   2.031   3.417   1.091 -0.2926  0.3123 -0.3668
 1239SOL    HW2 3759   2.025   3.332   0.966  0.4321 -0.8692  0.3833
 1240SOL     OW 3760   2.836   2.161   0.152  0.4989 -0.0627 -0.0275
 1240SOL    HW1 3761   2.834   2.229   0.084  0.9590  0.8580  0.8491
 1240SOL    HW2 3762   2.891   2.092   0.116  0.1460  0.0847 -0.8733
 1241SOL     OW 3763   3.177   3.151   0.469  0.4920  0.9811  0.4316
 1241SOL    HW1 3764   3.261   3.181   0.435  0.4463  1.2582  0.5534
 1241SOL    HW2 3765   3.154   3.075   0.416  1.5391 -0.0254  1.3630
 1242SOL     OW 3766   2.673   2.057   0.902  0.2503  0.0194  0.1268
 1242SOL    HW1 3767   2.597   2.042   0.847  0.6099 -0.8171 -0.1504
 1242SOL    HW2 3768   2.748   2.040   0.846  0.6688  1.2003  0.2876
 1243SOL     OW 3769   2.835   3.446   0.316  0.3852 -0.0585  0.0912
 1243SOL    HW1 3770   2.755   3.399   0.338 -0.0077  0.4953 -0.1439
 1243SOL    HW2 3771   2.806   3.519   0.261  0.9315  0.7433  0.8437
 1244SOL     OW 3772   2.033   3.556   0.701 -0.6543 -0.7611 -0.1348
 1244SOL    HW1 3773   2.068   3.478   0.660 -0.8954 -2.7433  3.0551
 1244SOL    HW2 3774   2.105   3.588   0.756 -1.3403 -0.2072  0.4655
 1245SOL     OW 3775   3.504   2.368   0.895 -0.2201  0.0001  0.2258
 1245SOL    HW1 3776   3.589   2.409   0.913 -0.8521  2.0290 -1.1249
 1245SOL    HW2 3777   3.474   2.338   0.981  0.8539  1.2707  1.0964
 1246SOL     OW 3778   3.073   2.489   0.843 -0.2457 -0.1187  0.7878
 1246SOL    HW1 3779   3.098   2.412   0.894 -0.1052  0.3457  1.4370
 1246SOL    HW2 3780   3.085   2.463   0.752  0.1371 -0.7478  1.0130
 1247SOL     OW 3781   2.019   3.515   1.600  0.6503 -0.1965 -0.1284
 1247SOL    HW1 3782   1.996   3.440   1.655 -1.2408  0.8253  0.5592
 1247SOL    HW2 3783   2.049   3.581   1.663 -0.2000  0.5075 -0.4506
 1248SOL     OW 3784   2.162   2.500   1.449  0.3532  0.1455 -0.3417
 1248SOL    HW1 3785   2.225   2.570   1.432 -0.2474  0.3782 -1.8137
 1248SOL    HW2 3786   2.077   2.537   1.422 -0.1206 -0.7916 -0.1736
 1249SOL     OW 3787   2.329   3.492   1.057  0.9251 -0.4235  0.4874
 1249SOL    HW1 3788   2.241   3.455   1.067  0.8420 -0.1577  0.7911
 1249SOL    HW2 3789   2.326   3.541   0.975  0.6834 -0.1420  0.6585
 1250SOL     OW 3790   2.617   3.603   0.992  0.2800 -0.5725  0.5105
 1250SOL    HW1 3791   2.590   3.693   0.973 -0.8964 -1.0721 -0.2970
 1250SOL    HW2 3792   2.706   3.596   0.959  0.1082  0.0854 -0.0950
 1251SOL     OW 3793   1.966   2.926   0.458  0.9361 -0.1624 -0.4185
 1251SOL    HW1 3794   1.965   2.860   0.527 -1.4726 -1.4982 -1.5794
 1251SOL    HW2 3795   1.873   2.942   0.438  1.5130  0.9755 -2.5642
 1252SOL     OW 3796   3.633   1.874   1.242 -0.6096 -0.0739  0.4777
 1252SOL    HW1 3797   3.616   1.942   1.177 -1.3527 -1.3886 -0.7405
 1252SOL    HW2 3798   3.702   1.820   1.203 -0.5004 -0.4225  1.1297
 1253SOL     OW 3799   2.667   2.563   1.618  0.2107 -0.2331 -0.0156
 1253SOL    HW1 3800   2.739   2.502   1.634  0.6574  0.4398  0.6329
 1253SOL    HW2 3801   2.594   2.529   1.671  1.0290  0.7893  1.8729
 1254SOL     OW 3802   2.802   3.252   1.001 -0.1441  0.1872 -0.0505
 1254SOL    HW1 3803   2.791   3.269   0.907  1.3554 -0.5281 -0.3759
 1254SOL    HW2 3804   2.714   3.263   1.037 -1.4743 -2.4975 -2.0454
 1255SOL     OW 3805   3.259   2.413   1.328  0.5102  0.1444  0.0415
 1255SOL    HW1 3806   3.200   2.379   1.395  0.9656  1.5282  1.2051
 1255SOL    HW2 3807   3.203   2.428   1.252  0.0789 -1.9185 -0.0965
 1256SOL     OW 3808   2.842   3.272   0.699 -0.2478  0.0169 -0.0986
 1256SOL    HW1 3809   2.927   3.228   0.702 -0.9572 -1.3839  0.1014
 1256SOL    HW2 3810   2.837   3.307   0.610  1.1430  1.4083  0.3236
 1257SOL     OW 3811   2.885   2.053   0.738  0.0082 -0.0141 -0.4119
 1257SOL    HW1 3812   2.964   2.092   0.701  0.3853 -0.9814 -0.6723
 1257SOL    HW2 3813   2.902   1.958   0.734 -1.2203 -0.2347 -0.6060
 1258SOL     OW 3814   2.331   1.717   0.352 -0.0619 -0.3043 -0.1777
 1258SOL    HW1 3815   2.389   1.766   0.410  1.3228 -1.5500 -0.4262
 1258SOL    HW2 3816   2.267   1.781   0.322  0.2526  0.7772  1.3214
 1259SOL     OW 3817   3.061   1.691   0.233 -0.2025  0.1772 -0.4820
 1259SOL    HW1 3818   3.055   1.597   0.212  0.2252 -0.0277  0.2559
 1259SOL    HW2 3819   3.109   1.729   0.160  0.7749 -0.4247 -0.1766
 1260SOL     OW 3820   3.083   2.216   0.994  0.4175  0.4192  0.6626
 1260SOL    HW1 3821   3.049   2.238   1.081  1.0526 -0.8296  1.2471
 1260SOL    HW2 3822   3.014   2.162   0.955 -0.3552  1.8826 -0.0717
 1261SOL     OW 3823   2.977   3.681   0.842  0.3621 -0.9900  0.2480
 1261SOL    HW1 3824   3.022   3.721   0.916  1.5469  1.2016 -1.5181
 1261SOL    HW2 3825   3.039   3.616   0.809  0.5444 -0.8033  0.2161
 1262SOL     OW 3826   2.449   2.314   0.539 -0.1401 -0.7112  0.2315
 1262SOL    HW1 3827   2.541   2.325   0.515  0.2521  0.5510  2.1308
 1262SOL    HW2 3828   2.406   2.394   0.506 -0.2654 -0.5928  0.6818
 1263SOL     OW 3829   3.146   4.109   0.765 -0.3845 -0.3371  0.2147
 1263SOL    HW1 3830   3.172   4.098   0.673 -0.9940 -0.3150  0.0396
 1263SOL    HW2 3831   3.175   4.198   0.787  3.5506 -1.7048  1.3073
 1264SOL     OW 3832   1.947   2.601   1.139  0.4978  0.3131  0.3300
 1264SOL    HW1 3833   1.898   2.521   1.157  0.8788  0.1376  0.6008
 1264SOL    HW2 3834   1.960   2.600   1.044  0.4775  0.0686  0.3291
 1265SOL     OW 3835   2.614   1.621   0.788  0.2855 -0.2154  0.5750
 1265SOL    HW1 3836   2.620   1.526   0.777 -1.3483 -0.1723 -1.4308
 1265SOL    HW2 3837   2.656   1.656   0.709  1.3590  0.7819  1.5569
 1266SOL     OW 3838   2.810   2.529   0.795  0.5106  0.5887 -0.4695
 1266SOL    HW1 3839   2.904   2.539   0.812  0.6404  1.2720 -1.5349
 1266SOL    HW2 3840   2.772   2.520   0.882  1.6074 -0.1447 -0.0362
 1267SOL     OW 3841   3.016   1.898   0.394  0.6323 -0.2398 -0.1646
 1267SOL    HW1 3842   3.020   1.819   0.341 -0.4357  0.4992 -1.3895
 1267SOL    HW2 3843   2.922   1.917   0.404  0.8543  0.6398  0.4661
 1268SOL     OW 3844   3.410   3.229   0.396  0.0128  0.1621  0.2291
 1268SOL    HW1 3845   3.468   3.304   0.410 -0.8846  1.1530 -1.0638
 1268SOL    HW2 3846   3.465   3.152   0.414  0.6256  1.1029  2.7939
 1269SOL     OW 3847   3.402   2.033   0.657 -0.8068  0.3205 -0.3575
 1269SOL    HW1 3848   3.386   1.946   0.621 -1.7290  0.9019 -1.4152
 1269SOL    HW2 3849   3.397   2.021   0.752  0.5707 -1.0363 -0.4087
 1270SOL     OW 3850   3.997   2.704   0.463  0.0650  0.0605 -0.0982
 1270SOL    HW1 3851   3.903   2.688   0.461  0.1494 -0.4047 -1.3250
 1270SOL    HW2 3852   4.033   2.634   0.517 -0.1961 -0.3842 -0.4954
 1271SOL     OW 3853   3.392   2.774   0.934  0.9038 -0.1315 -0.3342
 1271SOL    HW1 3854   3.441   2.694   0.956  1.3604 -0.2204 -1.5776
 1271SOL    HW2 3855   3.308   2.763   0.977  1.6896 -0.3298  1.2323
 1272SOL     OW 3856   2.459   2.152   0.188  0.1506  0.1549  0.5967
 1272SOL    HW1 3857   2.524   2.201   0.239  1.0684 -1.5175  1.1018
 1272SOL    HW2 3858   2.507   2.076   0.156 -0.9803  0.0840 -1.0110
 1273SOL     OW 3859   2.697   3.264   1.684  0.0236 -0.6939 -0.5003
 1273SOL    HW1 3860   2.776   3.235   1.639 -0.8033 -0.3948 -2.2215
 1273SOL    HW2 3861   2.633   3.195   1.667  0.1936 -1.5516  1.9276
 1274SOL     OW 3862   2.910   3.115   1.222  0.0217 -0.2667 -0.2942
 1274SOL    HW1 3863   2.895   3.171   1.145  4.6719 -0.0831 -1.3812
 1274SOL    HW2 3864   2.935   3.030   1.186  0.8787 -0.6218  1.0503
 1275SOL     OW 3865   3.358   3.226   0.807 -0.0555 -0.5888  0.1876
 1275SOL    HW1 3866   3.379   3.237   0.899 -0.3838 -0.5939  0.2638
 1275SOL    HW2 3867   3.262   3.227   0.803 -0.0756 -1.9274  0.0163
 1276SOL     OW 3868   2.754   2.479   1.058  0.1877  0.2521  0.2180
 1276SOL    HW1 3869   2.768   2.385   1.050 -2.1932 -0.0336 -1.2790
 1276SOL    HW2 3870   2.687   2.489   1.125  1.0081  0.9614  0.9580
 1277SOL     OW 3871   3.063   2.959   1.855  0.6373 -0.0941  0.0627
 1277SOL    HW1 3872   2.981   2.997   1.885  0.6517 -0.5438  0.6959
 1277SOL    HW2 3873   3.042   2.921   1.769 -0.4360 -2.1690  1.1457
 1278SOL     OW 3874   2.603   2.965   0.023  0.5119 -0.5406 -0.5515
 1278SOL    HW1 3875   2.661   3.019  -0.031  0.2418  0.1154 -0.1962
 1278SOL    HW2 3876   2.663   2.911   0.074  0.7867 -0.6383 -0.9738
 1279SOL     OW 3877   2.244   3.000   1.264  0.7473  0.3897 -0.4787
 1279SOL    HW1 3878   2.247   2.974   1.172  0.8423 -0.2830 -0.2909
 1279SOL    HW2 3879   2.268   3.093   1.264  0.5402  0.4478 -1.1517
 1280SOL     OW 3880   3.332   2.074   0.999  0.3199 -0.1246 -0.1001
 1280SOL    HW1 3881   3.270   2.139   0.967  0.9880  0.8561  0.5243
 1280SOL    HW2 3882   3.311   1.994   0.951 -0.0259  0.7461 -1.4369
 1281SOL     OW 3883   1.578   3.260   1.196  0.4108 -0.1870  0.3454
 1281SOL    HW1 3884   1.538   3.282   1.280 -1.7252 -0.8635 -0.4331
 1281SOL    HW2 3885   1.576   3.341   1.146  0.5977 -0.0655  0.5345
 1282SOL     OW 3886   2.291   3.029   0.340  0.4468  0.2883 -0.2747
 1282SOL    HW1 3887   2.197   3.043   0.345 -0.0882 -2.7646  0.7227
 1282SOL    HW2 3888   2.318   3.011   0.431  1.1831 -2.5260 -0.9429
 1283SOL     OW 3889   2.196   2.297   0.961 -0.0141 -0.2027  0.5767
 1283SOL    HW1 3890   2.220   2.244   1.037 -1.2145  0.6754  1.6243
 1283SOL    HW2 3891   2.280   2.319   0.920  0.4966 -3.4256 -0.3302
 1284SOL     OW 3892   3.682   3.123   0.190  0.3529 -0.4504 -0.0158
 1284SOL    HW1 3893   3.729   3.180   0.251  0.5318 -1.6971  1.0675
 1284SOL    HW2 3894   3.628   3.067   0.246  0.1757 -1.3336 -1.0241
 1285SOL     OW 3895   2.954   3.443   1.250  0.5951  0.2760  0.0723
 1285SOL    HW1 3896   2.890   3.380   1.284  0.0583  0.6075 -0.3073
 1285SOL    HW2 3897   2.955   3.426   1.155  1.0036  0.3373  0.0646
 1286SOL     OW 3898   3.396   2.676   0.582 -0.0805  0.7576 -0.5697
 1286SOL    HW1 3899   3.379   2.767   0.609  0.0261  0.5265  0.3022
 1286SOL    HW2 3900   3.474   2.682   0.526  0.5090  1.0888  0.2719
 1287SOL     OW 3901   2.386   3.628   1.288  0.3433 -0.4413  0.0090
 1287SOL    HW1 3902   2.393   3.574   1.366  1.3618 -1.5267 -0.8074
 1287SOL    HW2 3903   2.369   3.566   1.217  1.0808  0.3443 -0.8770
 1288SOL     OW 3904   2.539   2.795   1.543  0.0643 -0.4364 -0.1123
 1288SOL    HW1 3905   2.596   2.862   1.507  0.8070 -0.5504  0.8164
 1288SOL    HW2 3906   2.596   2.720   1.560 -0.3857 -0.6303  0.6163
 1289SOL     OW 3907   2.497   2.049   1.423  0.1895 -0.4276 -0.1067
 1289SOL    HW1 3908   2.444   2.128   1.416 -0.1523 -0.5595  0.8536
 1289SOL    HW2 3909   2.585   2.080   1.445 -0.0794 -0.3318  0.8768
 1290SOL     OW 3910   2.457   1.615   1.677 -0.1156  0.2375 -0.1993
 1290SOL    HW1 3911   2.427   1.665   1.753  0.5488  0.9384 -0.3870
 1290SOL    HW2 3912   2.484   1.681   1.614 -1.1647 -0.3216 -1.2801
 1291SOL     OW 3913   2.624   2.922   0.893  0.1976  0.3052  0.0824
 1291SOL    HW1 3914   2.630   2.916   0.989 -1.8635 -0.8177  0.2102
 1291SOL    HW2 3915   2.595   3.012   0.877 -1.7241 -0.1401  0.7410
 1292SOL     OW 3916   3.125   2.706   1.007  0.0366 -1.0149 -0.3441
 1292SOL    HW1 3917   3.128   2.775   0.941  3.2282  0.0991  0.8099
 1292SOL    HW2 3918   3.119   2.625   0.956 -1.0488 -0.0681 -1.8114
 1293SOL     OW 3919   2.284   2.129   1.139  0.0812 -0.5253  0.0920
 1293SOL    HW1 3920   2.322   2.189   1.203  1.8736  1.6337 -2.7623
 1293SOL    HW2 3921   2.333   2.047   1.152  0.5941 -0.0714  1.2483
 1294SOL     OW 3922   1.646   3.260   0.710 -0.0353 -0.0483  0.2766
 1294SOL    HW1 3923   1.630   3.208   0.789  0.0441  0.3972  0.5904
 1294SOL    HW2 3924   1.577   3.327   0.710  1.7892  2.0051  1.7450
 1295SOL     OW 3925   2.463   2.327   0.908  0.5865  0.0194  0.2848
 1295SOL    HW1 3926   2.546   2.291   0.938  0.7202 -0.7079 -0.9118
 1295SOL    HW2 3927   2.482   2.363   0.822 -0.5560 -1.0362 -0.4362
 1296SOL     OW 3928   2.127   1.878   0.299 -0.5990  0.1465  0.0497
 1296SOL    HW1 3929   2.135   1.962   0.344 -1.2815  0.4932 -0.4483
 1296SOL    HW2 3930   2.041   1.881   0.257 -0.5753 -0.7467 -0.0956
 1297SOL     OW 3931   2.759   2.755   0.676  0.2090  0.2429  0.2912
 1297SOL    HW1 3932   2.705   2.813   0.730 -2.0370 -0.2449 -1.2674
 1297SOL    HW2 3933   2.759   2.672   0.724 -0.5502  0.2190  0.2694
 1298SOL     OW 3934   3.851   3.434   1.480 -0.3234  0.9451 -0.5557
 1298SOL    HW1 3935   3.828   3.341   1.484  0.5034  0.7603  0.1012
 1298SOL    HW2 3936   3.823   3.462   1.393  0.8584 -0.3177 -1.3839
 1299SOL     OW 3937   2.702   2.490   1.970 -0.3328 -0.4759 -0.3269
 1299SOL    HW1 3938   2.611   2.501   1.942 -0.6032 -1.4422  0.1197
 1299SOL    HW2 3939   2.754   2.499   1.890 -0.8321 -0.1018 -0.6138
 1300SOL     OW 3940   3.069   3.416   0.502  0.3243 -0.1144  0.0343
 1300SOL    HW1 3941   2.998   3.438   0.442  1.0315 -0.1933 -0.8485
 1300SOL    HW2 3942   3.092   3.326   0.480  1.8031  0.4569 -0.8242
 1301SOL     OW 3943   2.447   2.736   0.771  0.0624 -0.0709 -0.7757
 1301SOL    HW1 3944   2.501   2.799   0.819 -0.0288  0.5264 -1.4397
 1301SOL    HW2 3945   2.484   2.651   0.794 -0.8237  0.0919  1.3901
 1302SOL     OW 3946   2.021   2.482   0.855 -0.5529  0.1365 -0.3970
 1302SOL    HW1 3947   2.071   2.560   0.832 -2.1128  1.0976 -0.6613
 1302SOL    HW2 3948   2.086   2.423   0.894  0.8929  1.0647 -1.2765
 1303SOL     OW 3949   2.738   2.185   1.464  0.2070  0.1446  0.1442
 1303SOL    HW1 3950   2.730   2.190   1.559 -1.2735 -1.2078  0.1333
 1303SOL    HW2 3951   2.804   2.117   1.448 -0.6260 -0.6936  0.2170
 1304SOL     OW 3952   3.258   1.977   1.251 -0.1187  0.0395 -0.4051
 1304SOL    HW1 3953   3.283   2.040   1.319 -0.0177  0.3395 -0.7192
 1304SOL    HW2 3954   3.296   2.012   1.171 -1.2093  0.2935 -0.8260
 1305SOL     OW 3955   1.744   2.974   0.173  0.2598 -0.0761 -0.7354
 1305SOL    HW1 3956   1.701   2.907   0.120 -0.4988 -0.6232  0.5025
 1305SOL    HW2 3957   1.734   2.943   0.263 -1.0124  2.1690 -0.0126
 1306SOL     OW 3958   1.795   3.515   0.823  0.2277  0.1091 -0.0034
 1306SOL    HW1 3959   1.756   3.465   0.751  2.5375 -0.1164 -1.1628
 1306SOL    HW2 3960   1.877   3.550   0.788  0.2516  2.0871  1.7707
 1307SOL     OW 3961   2.271   3.267   0.782 -0.3193  0.4023  0.6067
 1307SOL    HW1 3962   2.352   3.267   0.833 -0.1311 -0.0171  0.3135
 1307SOL    HW2 3963   2.275   3.349   0.733 -0.1041  0.4171  0.6456
 1308SOL     OW 3964   2.920   2.841   1.144 -0.1182  0.5076 -0.1036
 1308SOL    HW1 3965   2.980   2.819   1.072  1.1757 -1.3844  1.4503
 1308SOL    HW2 3966   2.834   2.814   1.113  0.6173 -1.6129 -0.4943
 1309SOL     OW 3967   1.495   2.651   0.749  0.1016  0.6562  0.4483
 1309SOL    HW1 3968   1.505   2.744   0.765  2.5026  0.5584 -0.0608
 1309SOL    HW2 3969   1.577   2.625   0.706  0.3712 -2.0404  2.3228
 1310SOL     OW 3970   2.296   2.781   1.439  0.5041 -0.1736 -0.0037
 1310SOL    HW1 3971   2.281   2.864   1.394 -1.1839  0.0520  0.8957
 1310SOL    HW2 3972   2.387   2.786   1.468  0.5981  1.1219 -0.4382
 1311SOL     OW 3973   2.735   1.960   0.363  0.1261 -0.4381  0.6434
 1311SOL    HW1 3974   2.764   2.044   0.328  0.8939 -0.3861  1.3816
 1311SOL    HW2 3975   2.684   1.921   0.291 -0.2293  0.6340  0.2885
 1312SOL     OW 3976   3.523   2.334   1.194  0.2893 -0.0216 -0.2673
 1312SOL    HW1 3977   3.552   2.270   1.259  0.7010 -0.7387 -1.1447
 1312SOL    HW2 3978   3.446   2.375   1.234  1.6040  0.9061  1.4903
 1313SOL     OW 3979   1.750   3.348   1.635 -0.2419 -0.0933 -0.8230
 1313SOL    HW1 3980   1.826   3.298   1.663 -0.6493 -0.7321 -0.8258
 1313SOL    HW2 3981   1.713   3.297   1.562 -1.5877 -0.6717  0.2083
 1314SOL     OW 3982   3.052   2.463   1.153  0.4987 -0.0010  1.0249
 1314SOL    HW1 3983   2.971   2.420   1.179  0.0178 -1.0115 -1.7352
 1314SOL    HW2 3984   3.032   2.557   1.158 -1.3313 -0.2235 -0.7666
 1315SOL     OW 3985   2.692   3.331   1.329 -0.0626  0.5449  0.4924
 1315SOL    HW1 3986   2.759   3.287   1.381 -1.1625 -0.7849  0.8507
 1315SOL    HW2 3987   2.609   3.306   1.371 -1.0444 -1.1131 -2.1780
 1316SOL     OW 3988   1.963   2.940   1.418 -0.6524 -0.2823 -0.3169
 1316SOL    HW1 3989   2.031   2.958   1.353 -0.6641 -0.2661 -0.3247
 1316SOL    HW2 3990   1.910   3.020   1.419 -0.3582 -0.0865  0.0694
 1317SOL     OW 3991   3.505   3.505   1.345 -0.6464  0.1100  0.5328
 1317SOL    HW1 3992   3.411   3.511   1.326 -0.7507 -1.7063  0.3159
 1317SOL    HW2 3993   3.513   3.431   1.405  0.7699 -0.6501 -0.5233
 1318SOL     OW 3994   3.089   3.339   0.971 -0.1452  0.2280 -0.3687
 1318SOL    HW1 3995   3.109   3.411   0.911 -1.4850  1.1904  0.3020
 1318SOL    HW2 3996   3.008   3.301   0.937 -0.7441  0.5807  0.6202
 1319SOL     OW 3997   2.130   3.037   0.718 -0.0715 -0.3781  0.3970
 1319SOL    HW1 3998   2.176   3.120   0.730 -1.0890  0.4303 -0.9721
 1319SOL    HW2 3999   2.038   3.061   0.713 -0.5841 -1.8442  1.9537
 1320SOL     OW 4000   2.714   3.579   1.972 -0.1978 -0.3056  0.5945
 1320SOL    HW1 4001   2.725   3.651   1.910  0.9260 -1.1392 -0.2081
 1320SOL    HW2 4002   2.651   3.521   1.931  0.4203 -0.7762  0.3072
 1321SOL     OW 4003   3.815   3.292   0.360 -0.0830 -0.3575  0.0167
 1321SOL    HW1 4004   3.889   3.325   0.310  1.7396  0.1990  2.8241
 1321SOL    HW2 4005   3.763   3.369   0.380  0.5280 -0.1626  0.9423
 1322SOL     OW 4006   1.974   3.498   1.311 -0.6765  0.1701 -0.2651
 1322SOL    HW1 4007   1.884   3.531   1.314 -0.8411 -0.3063  0.7292
 1322SOL    HW2 4008   2.006   3.510   1.401 -0.3188 -1.1852 -0.1955
 1323SOL     OW 4009   3.085   3.126   0.745 -0.7036 -0.0423 -0.2638
 1323SOL    HW1 4010   3.115   3.115   0.654 -1.5887 -0.8407 -0.4632
 1323SOL    HW2 4011   3.088   3.038   0.782 -1.0020  0.1772  0.2831
 1324SOL     OW 4012   2.442   3.240   1.439  0.4617  0.3711  0.0141
 1324SOL    HW1 4013   2.376   3.309   1.443  0.0109 -0.0689  3.2789
 1324SOL    HW2 4014   2.409   3.173   1.498  2.8379 -0.7992  0.1072
 1325SOL     OW 4015   4.038   2.066   0.682  0.0347 -0.2003 -0.3697
 1325SOL    HW1 4016   4.088   2.136   0.724  2.1135 -1.8205 -0.0005
 1325SOL    HW2 4017   4.053   2.080   0.588 -1.3995  1.0867 -0.4634
 1326SOL     OW 4018   2.135   2.107   0.429 -0.1847  0.4079 -0.0642
 1326SOL    HW1 4019   2.048   2.141   0.411  0.4617  2.4754  0.4910
 1326SOL    HW2 4020   2.149   2.126   0.522  0.5232 -0.7040  0.0669
 1327SOL     OW 4021   2.627   2.917   1.153 -0.4323  0.7218 -0.2588
 1327SOL    HW1 4022   2.648   2.936   1.244 -3.3081  1.9560  0.2762
 1327SOL    HW2 4023   2.588   2.830   1.155  0.4565  0.3070 -0.5137
 1328SOL     OW 4024   2.159   2.948   0.973 -0.2106 -0.0546 -0.4113
 1328SOL    HW1 4025   2.082   2.983   1.018 -0.6193  0.3374 -1.3826
 1328SOL    HW2 4026   2.160   2.993   0.889  0.6211 -0.6592 -0.7370
 1329SOL     OW 4027   2.594   3.333   0.413  0.2755 -0.3086  0.3002
 1329SOL    HW1 4028   2.563   3.263   0.471 -3.5285  0.6368 -0.3400
 1329SOL    HW2 4029   2.559   3.311   0.327  2.6332  0.2627 -0.8849
 1330SOL     OW 4030   2.984   1.731   0.719 -0.4951 -0.3259  0.6826
 1330SOL    HW1 4031   3.075   1.740   0.689 -0.1954 -1.5882  1.1438
 1330SOL    HW2 4032   2.935   1.704   0.641 -0.6153  1.0051  0.2787
 1331SOL     OW 4033   2.401   3.742   0.153 -0.2964 -0.4558  0.4416
 1331SOL    HW1 4034   2.473   3.685   0.126  0.4008  2.1033 -4.2548
 1331SOL    HW2 4035   2.340   3.740   0.079 -1.7415  2.3930  1.4070
 1332SOL     OW 4036   4.110   2.463   1.583 -0.1302  0.6046 -0.4549
 1332SOL    HW1 4037   4.184   2.522   1.594  0.1360  0.2717 -0.4136
 1332SOL    HW2 4038   4.036   2.520   1.562 -0.1565  1.0540  0.7824
 1333SOL     OW 4039   4.094   5.512   3.015 -0.1542 -0.4604 -0.7448
 1333SOL    HW1 4040   4.097   5.418   3.032  1.7057 -0.2853  0.1363
 1333SOL    HW2 4041   4.186   5.539   3.014 -0.6396  1.2756 -1.4516
 1334SOL     OW 4042   2.401   3.038   1.626  0.0743 -0.2923 -0.1456
 1334SOL    HW1 4043   2.310   3.014   1.640  0.0058  0.7179  1.3399
 1334SOL    HW2 4044   2.437   2.965   1.576 -1.3363 -1.0996 -0.0381
 1335SOL     OW 4045   2.806   2.199   1.089  0.3873  0.3145 -0.2336
 1335SOL    HW1 4046   2.771   2.144   1.019 -2.4067 -1.1207  2.0674
 1335SOL    HW2 4047   2.838   2.137   1.154  0.0410  1.4855  1.1018
 1336SOL     OW 4048   1.527   2.282   0.180  0.7905 -0.2503 -0.0249
 1336SOL    HW1 4049   1.549   2.359   0.233  0.6128  1.0031 -1.6695
 1336SOL    HW2 4050   1.612   2.243   0.159  0.9331 -0.1119  0.2851
 1337SOL     OW 4051   3.425   2.644   1.268 -0.7045 -0.2681  0.2944
 1337SOL    HW1 4052   3.415   2.579   1.337 -1.1183 -0.1068  0.3896
 1337SOL    HW2 4053   3.336   2.668   1.244 -0.5587  0.2242  0.2266
 1338SOL     OW 4054   2.221   2.271   0.188  0.0496  0.2738  0.5355
 1338SOL    HW1 4055   2.205   2.217   0.266  0.7465 -0.3442  0.2608
 1338SOL    HW2 4056   2.306   2.242   0.155 -0.1676  0.6268 -0.3788
 1339SOL     OW 4057   2.621   3.015   1.408 -0.4743  0.0560 -0.4185
 1339SOL    HW1 4058   2.698   3.055   1.448  0.3734 -0.5755 -1.3710
 1339SOL    HW2 4059   2.584   3.083   1.353  0.0691  0.0088 -0.8444
 1340SOL     OW 4060   3.574   3.344   0.643 -0.2706  0.1620  0.0366
 1340SOL    HW1 4061   3.631   3.268   0.653 -0.7545 -0.4681 -1.6889
 1340SOL    HW2 4062   3.499   3.325   0.700  0.2719  0.0251  0.7136
 1341SOL     OW 4063   2.653   2.445   1.325  0.3200  0.2249  0.4626
 1341SOL    HW1 4064   2.678   2.354   1.342 -2.1166 -0.6113 -0.0877
 1341SOL    HW2 4065   2.658   2.487   1.411 -0.0812 -0.8509  1.0309
 1342SOL     OW 4066   3.530   3.286   1.500 -0.2673 -0.5688 -0.2663
 1342SOL    HW1 4067   3.557   3.256   1.587  0.7891  0.9048 -0.0611
 1342SOL    HW2 4068   3.605   3.268   1.444 -0.8902 -1.3731 -0.8688
 1343SOL     OW 4069   1.950   3.072   1.108  0.3489 -0.1973  0.2544
 1343SOL    HW1 4070   1.954   3.158   1.066  0.0035 -0.9036 -1.3000
 1343SOL    HW2 4071   1.900   3.087   1.189 -0.6656  0.8539 -0.5361
 1344SOL     OW 4072   3.655   2.801   1.162  0.4201  0.1115  0.4837
 1344SOL    HW1 4073   3.596   2.727   1.179 -0.8199  1.3245  1.7616
 1344SOL    HW2 4074   3.598   2.878   1.163  1.7041  1.1371 -0.6031
 1345SOL     OW 4075   5.229   4.233   2.883 -0.5750  0.0448 -0.3206
 1345SOL    HW1 4076   5.304   4.258   2.937 -1.3112 -0.9342  1.2280
 1345SOL    HW2 4077   5.180   4.170   2.937 -1.7934 -0.3617 -1.8183
 1346SOL     OW 4078   2.203   3.318   0.257  0.3539  0.7305  0.5723
 1346SOL    HW1 4079   2.169   3.322   0.167 -0.7539 -0.5958  0.8959
 1346SOL    HW2 4080   2.298   3.318   0.246  0.2426  0.3280 -0.6351
 1347SOL     OW 4081   3.827   2.538   1.509 -0.3110  0.3441  0.0429
 1347SOL    HW1 4082   3.844   2.562   1.418  0.1178  0.3616  0.1226
 1347SOL    HW2 4083   3.791   2.450   1.505  0.2755  0.1056 -0.1090
 1348SOL     OW 4084   2.282   3.580   0.785  0.2885  0.4964  0.2136
 1348SOL    HW1 4085   2.322   3.664   0.809  0.9162  0.6251 -1.1700
 1348SOL    HW2 4086   2.339   3.546   0.715  0.4128 -1.3952  1.1806
 1349SOL     OW 4087   2.874   2.841   0.442 -0.0692 -0.0437  0.1335
 1349SOL    HW1 4088   2.836   2.811   0.525 -0.0147 -2.6741 -0.6942
 1349SOL    HW2 4089   2.967   2.849   0.459 -0.1537  0.1470  0.5113
 1350SOL     OW 4090   2.968   3.241   0.200 -0.2557 -0.1159  0.9302
 1350SOL    HW1 4091   2.891   3.196   0.234 -0.6462 -1.5502 -1.5902
 1350SOL    HW2 4092   2.956   3.332   0.226 -2.2495 -0.5032  1.5471
 1351SOL     OW 4093   4.042   3.220   0.967 -0.0061 -0.2503  0.9699
 1351SOL    HW1 4094   4.035   3.182   0.879 -0.1619 -1.1155  1.3543
 1351SOL    HW2 4095   4.116   3.280   0.960 -0.9791  0.8758 -0.1750
 1352SOL     OW 4096   1.982   3.231   1.752  0.5996  0.9116  0.1784
 1352SOL    HW1 4097   2.012   3.147   1.716 -1.0996  0.0895  0.5660
 1352SOL    HW2 4098   2.046   3.253   1.820 -0.6341 -1.8259  2.4380
 1353SOL     OW 4099   1.904   3.261   0.318 -0.3259  0.0992  0.2760
 1353SOL    HW1 4100   1.992   3.283   0.288 -0.4594  1.3017  0.7205
 1353SOL    HW2 4101   1.866   3.211   0.246  0.4960  0.0981 -0.1750
 1354SOL     OW 4102   2.593   2.991   1.859  0.1177 -0.3701 -0.4687
 1354SOL    HW1 4103   2.572   2.920   1.920 -0.2672 -0.2576 -0.4713
 1354SOL    HW2 4104   2.535   2.977   1.784  1.2000 -1.0303 -1.2181
 1355SOL     OW 4105   3.616   2.047   1.028 -0.3704 -0.1859 -0.9575
 1355SOL    HW1 4106   3.659   2.129   1.004 -0.0757  0.7206  2.2926
 1355SOL    HW2 4107   3.523   2.067   1.027 -0.2699  0.4653  0.5456
 1356SOL     OW 4108   2.460   2.079   0.726  0.1818  0.2515 -0.0471
 1356SOL    HW1 4109   2.465   2.157   0.671 -0.6287 -0.8924 -1.8794
 1356SOL    HW2 4110   2.367   2.072   0.749  0.6160  1.1076  2.1601
 1357SOL     OW 4111   3.229   3.452   1.317  0.0795  0.3035  0.1302
 1357SOL    HW1 4112   3.243   3.447   1.411  1.9261  0.0382 -0.1189
 1357SOL    HW2 4113   3.139   3.423   1.305 -0.0369 -0.1246  1.7671
 1358SOL     OW 4114   2.279   2.587   1.164 -0.3861 -0.4565 -0.0685
 1358SOL    HW1 4115   2.282   2.501   1.123 -1.9169 -1.3864  1.5907
 1358SOL    HW2 4116   2.194   2.623   1.139  0.0244  0.3580 -0.3235
 1359SOL     OW 4117   2.725   3.614   0.144 -0.2889  0.0780 -0.0568
 1359SOL    HW1 4118   2.706   3.556   0.070  0.5751 -0.4307  0.1075
 1359SOL    HW2 4119   2.807   3.657   0.120  0.9202 -1.3358  1.2930
 1360SOL     OW 4120   3.650   2.093   0.538 -0.0847 -0.4057 -0.3015
 1360SOL    HW1 4121   3.727   2.056   0.581 -0.1086  1.4816  1.5140
 1360SOL    HW2 4122   3.576   2.060   0.589 -0.1607  1.1774  0.6975
 1361SOL     OW 4123   2.524   1.789   1.486 -0.4359 -0.2357 -0.4857
 1361SOL    HW1 4124   2.494   1.877   1.462  0.5247 -0.0986 -1.2214
 1361SOL    HW2 4125   2.562   1.754   1.406  0.2078 -0.8915  0.0947
 1362SOL     OW 4126   2.459   3.214   0.175 -0.0715  0.2236  0.0295
 1362SOL    HW1 4127   2.417   3.138   0.216 -0.3116  0.1637 -0.3215
 1362SOL    HW2 4128   2.400   3.238   0.103 -0.0260  0.7785  0.1700
 1363SOL     OW 4129   2.537   3.308   1.090 -0.7162 -0.0282 -0.0511
 1363SOL    HW1 4130   2.574   3.302   1.178 -1.0514 -1.6363  0.0048
 1363SOL    HW2 4131   2.472   3.378   1.096  0.1995  0.7786  0.6297
 1364SOL     OW 4132   2.975   2.440   0.547 -0.2647 -0.7889 -0.4309
 1364SOL    HW1 4133   3.018   2.490   0.478 -1.3599  0.0079 -0.5605
 1364SOL    HW2 4134   2.899   2.493   0.571 -1.3532 -2.2719 -0.4324
 1365SOL     OW 4135   3.541   1.801   0.483 -0.2860  0.3480 -0.4161
 1365SOL    HW1 4136   3.469   1.769   0.429 -1.1603 -0.7736  1.3307
 1365SOL    HW2 4137   3.603   1.839   0.421 -1.7036  0.0193 -2.0883
 1366SOL     OW 4138   1.777   2.666   0.055  0.2725 -0.2422  0.1888
 1366SOL    HW1 4139   1.687   2.667   0.087  0.3280 -1.8728  0.5021
 1366SOL    HW2 4140   1.823   2.605   0.113  0.7784 -1.9661 -1.8791
 1367SOL     OW 4141   2.490   2.249   1.647  0.5730  0.3148  0.6590
 1367SOL    HW1 4142   2.418   2.276   1.705 -0.3490 -0.1470 -0.2310
 1367SOL    HW2 4143   2.505   2.157   1.668  0.2112  0.1362  0.1606
 1368SOL     OW 4144   6.200   2.387   2.848  0.0944  0.2498 -0.3391
 1368SOL    HW1 4145   6.234   2.422   2.930  0.4223 -0.9132  0.0461
 1368SOL    HW2 4146   6.107   2.408   2.850  0.0262 -0.0714  0.5084
 1369SOL     OW 4147   2.030   2.199   2.213  0.1684  0.0274 -0.3739
 1369SOL    HW1 4148   2.071   2.283   2.235 -2.7605  1.4881  0.1020
 1369SOL    HW2 4149   1.981   2.217   2.133  1.1158 -1.8774 -1.4469
 1370SOL     OW 4150   0.409   0.904   0.185  0.2789 -0.0556  0.5457
 1370SOL    HW1 4151   0.327   0.871   0.149  0.8160 -1.1073  0.2478
 1370SOL    HW2 4152   0.399   0.894   0.280 -0.2722  0.6554  0.5704
 1371SOL     OW 4153   3.117   3.243   2.546 -0.4865  0.0470 -0.3536
 1371SOL    HW1 4154   3.063   3.191   2.604 -0.5857  1.7046  1.1200
 1371SOL    HW2 4155   3.199   3.194   2.538 -0.6609 -0.4558  0.7823
 1372SOL     OW 4156   2.637   2.693   2.804 -0.4998  0.0557  0.5440
 1372SOL    HW1 4157   2.602   2.623   2.750 -1.4978  0.6136  0.4521
 1372SOL    HW2 4158   2.693   2.743   2.745  0.5072 -0.8563  0.6993
 1373SOL     OW 4159   3.551   2.833   2.251 -0.4995  0.0802  0.2265
 1373SOL    HW1 4160   3.576   2.743   2.231 -0.1142  0.4877 -1.1836
 1373SOL    HW2 4161   3.577   2.845   2.343 -0.1265 -1.0899  0.2870
 1374SOL     OW 4162   2.740   3.062   3.024 -0.3633 -0.2174 -0.4022
 1374SOL    HW1 4163   2.679   3.069   3.097 -1.7163 -3.0280 -1.1033
 1374SOL    HW2 4164   2.707   3.125   2.959 -1.2469 -0.1818  0.0668
 1375SOL     OW 4165   2.735   2.998   2.502 -0.3871 -0.0751 -0.0949
 1375SOL    HW1 4166   2.793   3.074   2.508 -1.4315  0.8145 -0.8179
 1375SOL    HW2 4167   2.776   2.932   2.558  1.3884  0.4584 -0.6998
 1376SOL     OW 4168   6.472   3.106   2.986  1.0862 -0.1349  0.5546
 1376SOL    HW1 4169   6.385   3.065   2.990  0.4148  1.0282 -0.8175
 1376SOL    HW2 4170   6.533   3.035   3.003 -0.0850 -1.4240 -0.3972
 1377SOL     OW 4171   3.471   2.563   2.459  0.3838  0.0901 -0.2318
 1377SOL    HW1 4172   3.526   2.535   2.532  0.1176  1.2066  0.4190
 1377SOL    HW2 4173   3.455   2.483   2.409  1.5264 -0.4769  0.2857
 1378SOL     OW 4174   1.885   3.695   2.080  0.5254 -0.2424  0.1617
 1378SOL    HW1 4175   1.853   3.776   2.039 -1.0674 -1.2605 -0.7236
 1378SOL    HW2 4176   1.878   3.712   2.174  1.0869  0.9688 -0.0002
 1379SOL     OW 4177   1.922   3.193   2.101 -0.9320 -0.0210 -0.0254
 1379SOL    HW1 4178   1.844   3.138   2.099 -0.6582 -0.5214  1.5722
 1379SOL    HW2 4179   1.987   3.144   2.050 -1.4016  0.0237 -0.6850
 1380SOL     OW 4180   2.451   2.527   1.809  0.1233 -0.1583  0.2681
 1380SOL    HW1 4181   2.377   2.576   1.773 -1.0144 -1.0218  1.3326
 1380SOL    HW2 4182   2.411   2.447   1.844  1.7567 -1.2973 -0.3578
 1381SOL     OW 4183   3.188   2.807   2.011 -0.3531  0.0268  0.3488
 1381SOL    HW1 4184   3.155   2.858   1.937  1.1555 -1.6632 -1.6252
 1381SOL    HW2 4185   3.279   2.834   2.021  0.0208 -1.1243  0.2697
 1382SOL     OW 4186   1.145   4.469   0.420 -0.1888 -0.3930 -0.1076
 1382SOL    HW1 4187   1.053   4.491   0.430  0.1146  0.3785  1.1815
 1382SOL    HW2 4188   1.191   4.552   0.429  0.6759 -0.8653 -0.0162
 1383SOL     OW 4189   2.110   2.428   2.374  0.4699  0.2919 -0.5184
 1383SOL    HW1 4190   2.036   2.433   2.434  0.2751 -0.1491 -0.7147
 1383SOL    HW2 4191   2.080   2.471   2.294  1.0191  1.6266 -0.0243
 1384SOL     OW 4192   3.762   3.791   2.334 -0.2293  0.1385  0.2752
 1384SOL    HW1 4193   3.796   3.880   2.321 -0.5554  0.2746  0.3477
 1384SOL    HW2 4194   3.822   3.735   2.285 -0.2896  0.4454 -0.1503
 1385SOL     OW 4195   1.804   3.437   2.133 -0.3524 -0.3670 -0.1834
 1385SOL    HW1 4196   1.850   3.518   2.110 -1.5250 -0.1163 -1.8099
 1385SOL    HW2 4197   1.862   3.367   2.103 -1.3287 -0.0513 -3.1055
 1386SOL     OW 4198   3.898   2.965   2.737  0.4730 -0.2057 -0.5607
 1386SOL    HW1 4199   3.874   2.955   2.645  0.4615  0.6593 -0.6555
 1386SOL    HW2 4200   3.819   2.998   2.779  0.4424 -0.7080 -0.2079
 1387SOL     OW 4201   3.350   3.097   2.497 -0.1825 -0.5229 -0.3776
 1387SOL    HW1 4202   3.337   3.119   2.405  0.3222 -0.3390 -0.4085
 1387SOL    HW2 4203   3.437   3.131   2.518  0.2649 -1.7120 -0.1949
 1388SOL     OW 4204   2.388   3.257   2.628  0.0602 -0.2663 -0.7556
 1388SOL    HW1 4205   2.398   3.268   2.533 -1.2938  0.0392 -0.8801
 1388SOL    HW2 4206   2.417   3.341   2.664  1.5754 -0.7385 -0.7963
 1389SOL     OW 4207   2.510   1.840   2.318 -0.3741  0.2087 -0.3020
 1389SOL    HW1 4208   2.513   1.745   2.328  1.1817  0.1054 -1.3867
 1389SOL    HW2 4209   2.476   1.854   2.229  1.7279  0.5449 -1.1079
 1390SOL     OW 4210   4.565   0.905   0.542  0.4465  0.6349  0.3554
 1390SOL    HW1 4211   4.641   0.854   0.516 -0.2436  0.1804 -0.8629
 1390SOL    HW2 4212   4.573   0.987   0.494  1.5494  1.7408  2.3023
 1391SOL     OW 4213   3.816   3.207   1.987 -0.0128 -0.3606  0.0317
 1391SOL    HW1 4214   3.886   3.169   1.934  0.6837 -0.1346  0.7755
 1391SOL    HW2 4215   3.792   3.137   2.049 -1.4068 -0.9282 -1.0897
 1392SOL     OW 4216   1.205   1.165  -0.021  0.3037 -0.3061 -0.6225
 1392SOL    HW1 4217   1.112   1.180  -0.041  0.4240 -0.0030 -0.9544
 1392SOL    HW2 4218   1.204   1.089   0.037 -0.2989  0.9032  1.0296
 1393SOL     OW 4219   3.757   3.666   2.589  0.0334  0.0032 -0.0539
 1393SOL    HW1 4220   3.722   3.725   2.523 -1.2829 -0.2146  0.4232
 1393SOL    HW2 4221   3.766   3.720   2.668  1.7994  0.3174 -0.4300
 1394SOL     OW 4222   2.497   2.662   2.353 -0.0014  0.6825 -0.0529
 1394SOL    HW1 4223   2.569   2.665   2.290  1.2332  1.9070  1.3230
 1394SOL    HW2 4224   2.469   2.753   2.361 -1.3593  0.2982 -0.1308
 1395SOL     OW 4225   3.157   2.651   2.867 -0.1578 -0.7793 -1.0729
 1395SOL    HW1 4226   3.214   2.692   2.802  2.5296  2.0038  2.6237
 1395SOL    HW2 4227   3.203   2.571   2.892 -0.0607 -0.7002 -1.0015
 1396SOL     OW 4228   3.533   3.441   2.210 -0.4144 -0.6844 -0.2050
 1396SOL    HW1 4229   3.456   3.398   2.171  0.2167 -0.3814 -1.8414
 1396SOL    HW2 4230   3.598   3.371   2.217  0.4876 -0.1667 -2.5309
 1397SOL     OW 4231   3.101   2.524   1.950  0.7482  0.0462  0.4474
 1397SOL    HW1 4232   3.103   2.614   1.981 -0.9017  0.0172  0.7676
 1397SOL    HW2 4233   3.120   2.471   2.027 -0.0951  0.0797  0.6888
 1398SOL     OW 4234   2.019   2.529   2.606 -0.1839  1.0866  0.1346
 1398SOL    HW1 4235   2.040   2.619   2.631 -0.7725  1.2612  0.0067
 1398SOL    HW2 4236   1.995   2.486   2.688  1.6572  0.5843  0.4680
 1399SOL     OW 4237   2.182   1.969   1.924  0.3464  0.3487 -0.2027
 1399SOL    HW1 4238   2.264   1.996   1.964  0.6417 -0.1899 -0.4371
 1399SOL    HW2 4239   2.203   1.951   1.833  0.1256 -0.4796 -0.1007
 1400SOL     OW 4240   3.594   3.195   2.566  0.0663 -0.0950  0.2676
 1400SOL    HW1 4241   3.597   3.136   2.642 -1.1779 -1.0403 -0.3804
 1400SOL    HW2 4242   3.607   3.282   2.604  2.6369 -0.7879  1.1656
 1401SOL     OW 4243   2.481   2.481   3.009  0.5157 -0.3676 -0.8431
 1401SOL    HW1 4244   2.530   2.434   3.076 -2.0456  1.8243  2.9047
 1401SOL    HW2 4245   2.549   2.519   2.952  3.0847 -0.1046  2.1336
 1402SOL     OW 4246   3.176   3.434   2.124  0.5712  0.6616  0.2247
 1402SOL    HW1 4247   3.226   3.511   2.096 -0.4444  1.3333  0.2150
 1402SOL    HW2 4248   3.086   3.455   2.102  0.2079 -0.2987  0.7581
 1403SOL     OW 4249   2.456   3.487   2.723 -0.1796 -0.2493 -0.0521
 1403SOL    HW1 4250   2.390   3.556   2.716 -0.3713 -0.3215  0.8985
 1403SOL    HW2 4251   2.539   3.531   2.704 -0.3749  0.1014 -0.0967
 1404SOL     OW 4252   3.283   3.117   2.803 -0.2747 -0.5202  0.0825
 1404SOL    HW1 4253   3.374   3.099   2.827 -0.2010 -0.7494 -0.3546
 1404SOL    HW2 4254   3.257   3.042   2.749 -0.7201 -0.4503  0.1940
 1405SOL     OW 4255   2.701   2.675   2.176 -0.4649  0.3380  0.3340
 1405SOL    HW1 4256   2.784   2.722   2.182 -0.2937 -0.1708  2.9543
 1405SOL    HW2 4257   2.715   2.610   2.107  1.5195 -0.1010  1.0894
 1406SOL     OW 4258   3.558   3.065   2.815  0.0142 -0.3257 -0.3763
 1406SOL    HW1 4259   3.546   3.058   2.910 -1.1075 -0.0584 -0.4765
 1406SOL    HW2 4260   3.559   2.974   2.784  2.9028 -0.5343  0.1273
 1407SOL     OW 4261   3.411   3.370   1.902 -0.1651  0.5330 -0.0637
 1407SOL    HW1 4262   3.358   3.298   1.938 -1.6649  0.3571 -2.4020
 1407SOL    HW2 4263   3.353   3.446   1.906  0.4452  1.0005 -0.0514
 1408SOL     OW 4264   3.813   3.159   1.518 -0.2802 -0.4097 -0.0090
 1408SOL    HW1 4265   3.809   3.071   1.480 -0.0886 -0.5886  0.3789
 1408SOL    HW2 4266   3.859   3.147   1.602  0.5412  0.2032 -0.3581
 1409SOL     OW 4267   2.371   3.531   1.964  0.1760  0.5809  1.2107
 1409SOL    HW1 4268   2.335   3.610   1.925 -2.5976 -0.9908  0.3189
 1409SOL    HW2 4269   2.430   3.496   1.897 -1.8291 -0.2350 -0.2066
 1410SOL     OW 4270   3.286   2.243   2.092  0.0309  0.0157 -0.4873
 1410SOL    HW1 4271   3.297   2.262   2.186 -0.2533  2.2153 -0.8247
 1410SOL    HW2 4272   3.374   2.224   2.061  0.2448  0.0415  0.0829
 1411SOL     OW 4273   2.812   3.652   2.907  0.3984  0.1614 -0.2306
 1411SOL    HW1 4274   2.749   3.591   2.944  3.1120 -1.9306  1.2799
 1411SOL    HW2 4275   2.799   3.646   2.812 -0.9531 -0.9550  0.0029
 1412SOL     OW 4276   2.050   2.182   1.859 -0.4845 -0.2965  0.5912
 1412SOL    HW1 4277   1.968   2.181   1.908 -1.0020 -1.0452 -0.2507
 1412SOL    HW2 4278   2.098   2.105   1.891 -0.9043 -0.8964 -0.1663
 1413SOL     OW 4279   2.477   1.742   1.916 -0.1096 -0.1209  0.0304
 1413SOL    HW1 4280   2.428   1.716   1.994 -1.4490  0.0219 -0.7271
 1413SOL    HW2 4281   2.462   1.836   1.909  0.8887  0.0554  0.1853
 1414SOL     OW 4282   1.203   0.134   0.140 -0.5077 -0.1434 -0.2210
 1414SOL    HW1 4283   1.122   0.162   0.097 -1.5096 -0.4925  1.3879
 1414SOL    HW2 4284   1.181   0.128   0.233  1.5600  0.4423  0.3587
 1415SOL     OW 4285   2.642   3.139   2.742  0.0006  0.2004  0.0709
 1415SOL    HW1 4286   2.683   3.187   2.670 -1.2433  0.1620 -0.6960
 1415SOL    HW2 4287   2.548   3.146   2.725 -0.2696 -0.9869  0.9339
 1416SOL     OW 4288   2.669   2.160   2.889 -0.0423 -0.6138  0.4380
 1416SOL    HW1 4289   2.707   2.075   2.869 -0.2250 -0.8038  0.8700
 1416SOL    HW2 4290   2.575   2.150   2.870  0.3298  0.3843 -2.3288
 1417SOL     OW 4291   2.422   6.064   2.733  0.0111 -0.3265  0.3146
 1417SOL    HW1 4292   2.490   6.010   2.692 -0.0853 -0.5627  0.4676
 1417SOL    HW2 4293   2.423   6.145   2.682  1.7807  0.4891  1.5296
 1418SOL     OW 4294   3.660   3.278   1.771  0.3043  0.5096  0.1473
 1418SOL    HW1 4295   3.706   3.222   1.834  1.9112  1.9321  0.3009
 1418SOL    HW2 4296   3.576   3.298   1.814  0.8857  0.4896  1.3264
 1419SOL     OW 4297   1.917   1.675   2.267 -0.0569 -0.0312 -0.0348
 1419SOL    HW1 4298   1.906   1.766   2.294  0.0037  0.3432 -1.2263
 1419SOL    HW2 4299   1.839   1.655   2.216 -0.1583 -0.7238  0.3622
 1420SOL     OW 4300   2.470   1.998   1.988 -0.4579  0.2124  0.2434
 1420SOL    HW1 4301   2.454   2.075   2.043 -0.1958  0.1387  0.4226
 1420SOL    HW2 4302   2.562   1.977   2.002 -0.4413  0.0762 -0.0768
 1421SOL     OW 4303   2.829   3.264   2.547 -0.6386  0.3185  0.0769
 1421SOL    HW1 4304   2.906   3.258   2.490  1.1084  0.8009  2.2613
 1421SOL    HW2 4305   2.789   3.348   2.523  0.1821  0.6125 -0.3225
 1422SOL     OW 4306   2.257   2.717   2.006  0.1675  0.6610  0.0069
 1422SOL    HW1 4307   2.289   2.685   1.922  0.9652  1.1137  0.1270
 1422SOL    HW2 4308   2.301   2.802   2.018  0.4946  0.3576  1.1183
 1423SOL     OW 4309   2.940   3.674   2.445  0.3951 -0.0714  0.0574
 1423SOL    HW1 4310   2.893   3.667   2.362  1.6113 -2.7278 -0.5101
 1423SOL    HW2 4311   3.011   3.611   2.438 -0.3497 -1.6031  3.7134
 1424SOL     OW 4312   2.663   2.035   1.725 -0.0428  0.2780 -0.0080
 1424SOL    HW1 4313   2.592   1.976   1.751 -0.3391  0.5311 -0.2274
 1424SOL    HW2 4314   2.720   2.039   1.802 -0.7185  0.7465  0.4818
 1425SOL     OW 4315   4.124   0.387   0.301  0.1292 -0.6651 -0.1611
 1425SOL    HW1 4316   4.077   0.443   0.363 -0.8783 -0.8870 -0.6961
 1425SOL    HW2 4317   4.185   0.445   0.256 -1.7173  0.2953 -1.5461
 1426SOL     OW 4318   0.224   4.316   0.098 -1.0041 -0.7318 -0.3420
 1426SOL    HW1 4319   0.263   4.298   0.183 -1.6745 -0.3398  0.0528
 1426SOL    HW2 4320   0.299   4.336   0.041 -0.6408  0.2160  0.4516
 1427SOL     OW 4321   2.688   2.027   2.397 -0.2653 -0.0384 -0.0436
 1427SOL    HW1 4322   2.635   2.095   2.438 -0.3655 -0.8712  1.2696
 1427SOL    HW2 4323   2.624   1.961   2.367 -0.0255 -0.8502  1.1782
 1428SOL     OW 4324   0.682   4.067   0.036  0.3104 -0.5116  0.1648
 1428SOL    HW1 4325   0.606   4.093  -0.016  0.2385 -0.1189  0.4595
 1428SOL    HW2 4326   0.749   4.046  -0.028 -0.2627 -1.5501 -0.1176
 1429SOL     OW 4327   1.211   0.691   0.132 -0.2581 -0.2723  0.2690
 1429SOL    HW1 4328   1.134   0.688   0.076  0.6067 -1.6483 -0.9351
 1429SOL    HW2 4329   1.214   0.605   0.174  0.8439 -0.4184 -0.0641
 1430SOL     OW 4330   3.313   2.708   2.649  0.4775  0.7087 -0.1736
 1430SOL    HW1 4331   3.324   2.642   2.581 -1.8251  0.7571 -0.6532
 1430SOL    HW2 4332   3.402   2.722   2.683  1.2536 -1.3979 -1.1764
 1431SOL     OW 4333   3.764   2.772   2.504 -0.1946 -0.5109  0.4893
 1431SOL    HW1 4334   3.744   2.679   2.493 -0.6010 -0.6786  2.3155
 1431SOL    HW2 4335   3.827   2.791   2.435 -1.5025 -1.6752 -1.0986
 1432SOL     OW 4336   2.166   3.353   1.895 -0.7132 -0.2092 -0.2323
 1432SOL    HW1 4337   2.216   3.434   1.909 -0.6114 -0.5247  1.4642
 1432SOL    HW2 4338   2.224   3.284   1.928 -2.1277 -0.6145  1.5435
 1433SOL     OW 4339   3.711   3.289   2.955 -0.5214  0.0866 -0.1201
 1433SOL    HW1 4340   3.633   3.235   2.966 -0.5915  0.0507 -0.7831
 1433SOL    HW2 4341   3.721   3.299   2.861  0.4596 -0.1685 -0.0570
 1434SOL     OW 4342   3.365   2.046   1.564 -0.0740  0.0978  0.2702
 1434SOL    HW1 4343   3.338   1.973   1.620  2.9201 -0.3519  1.3583
 1434SOL    HW2 4344   3.320   2.122   1.601  0.7192 -0.4283  2.4648
 1435SOL     OW 4345   2.311   1.967   1.689  0.0667 -0.7775  0.8283
 1435SOL    HW1 4346   2.376   1.984   1.621  0.9480  0.7518  1.9901
 1435SOL    HW2 4347   2.227   1.982   1.646  0.6364  1.0252  0.2489
 1436SOL     OW 4348   0.975   0.653   0.040 -0.2530 -0.0682  0.7335
 1436SOL    HW1 4349   0.953   0.596  -0.034 -0.3088  0.1193  0.6057
 1436SOL    HW2 4350   0.935   0.737   0.018 -2.0822 -0.5856  1.9831
 1437SOL     OW 4351   2.525   3.022   2.344 -0.6323  0.7471 -0.2798
 1437SOL    HW1 4352   2.503   3.115   2.353  0.1410  0.8483  0.6801
 1437SOL    HW2 4353   2.596   3.008   2.407 -0.4063 -0.3837 -0.7711
 1438SOL     OW 4354   2.452   2.894   2.085  0.7047 -0.1074  0.1757
 1438SOL    HW1 4355   2.462   2.945   2.165 -2.1313 -2.4258  2.2232
 1438SOL    HW2 4356   2.500   2.813   2.101 -1.7053 -1.5612  0.6615
 1439SOL     OW 4357   2.786   2.396   2.765  0.1689 -0.6968  0.5228
 1439SOL    HW1 4358   2.741   2.315   2.789 -2.0020  0.6878  1.4517
 1439SOL    HW2 4359   2.721   2.447   2.719  1.2836  0.7854  0.5204
 1440SOL     OW 4360   3.306   3.227   2.250  0.1154  0.4709  0.1159
 1440SOL    HW1 4361   3.243   3.294   2.227  0.2777  1.0110  1.1608
 1440SOL    HW2 4362   3.314   3.173   2.172 -2.2825 -0.1318  0.2219
 1441SOL     OW 4363   2.926   2.120   2.521  0.2299  0.2420  0.3466
 1441SOL    HW1 4364   2.840   2.080   2.510  0.4035  0.0298 -0.2993
 1441SOL    HW2 4365   2.935   2.178   2.445  0.2636  0.9938  0.9116
 1442SOL     OW 4366   3.115   2.907   2.614 -0.5918  0.5583 -0.2893
 1442SOL    HW1 4367   3.158   2.822   2.616 -0.9493  0.3855  0.2738
 1442SOL    HW2 4368   3.161   2.955   2.545  0.6608  0.4649  0.4359
 1443SOL     OW 4369   2.968   2.187   1.848  0.6898  0.0754  0.4535
 1443SOL    HW1 4370   2.964   2.097   1.881  1.1629 -0.1171 -0.0100
 1443SOL    HW2 4371   2.931   2.239   1.919 -0.8194 -0.6139  0.2169
 1444SOL     OW 4372   4.093   1.225   0.216 -0.2155  0.4545  0.3500
 1444SOL    HW1 4373   4.056   1.139   0.236  1.1409 -0.4811 -1.0384
 1444SOL    HW2 4374   4.033   1.262   0.151 -1.5108  1.1599  1.8559
 1445SOL     OW 4375   2.364   2.803   2.797  0.1802  0.3343  0.0792
 1445SOL    HW1 4376   2.449   2.761   2.785 -0.5332 -0.7731 -1.6450
 1445SOL    HW2 4377   2.364   2.876   2.736  0.3955  1.2187  1.1097
 1446SOL     OW 4378   2.530   2.218   2.531  0.3507 -0.3891  0.0421
 1446SOL    HW1 4379   2.482   2.286   2.484 -0.0915 -0.5290  0.2844
 1446SOL    HW2 4380   2.514   2.237   2.624 -2.3703 -2.5935  0.1459
 1447SOL     OW 4381   3.208   2.707   2.379 -0.1528 -0.4262 -0.1405
 1447SOL    HW1 4382   3.302   2.706   2.396 -0.1095 -1.9354 -0.3783
 1447SOL    HW2 4383   3.194   2.634   2.319 -1.2689  0.6900 -1.3103
 1448SOL     OW 4384   0.693   0.188   0.002 -0.7884 -0.4640 -0.2089
 1448SOL    HW1 4385   0.675   0.199  -0.091 -1.8043  0.8026  0.1063
 1448SOL    HW2 4386   0.729   0.272   0.030 -2.2123 -0.1845  0.9041
 1449SOL     OW 4387   3.241   2.094   1.827 -0.3072  0.0420  0.1870
 1449SOL    HW1 4388   3.235   2.189   1.827 -2.5717 -0.0293 -0.2896
 1449SOL    HW2 4389   3.269   2.071   1.915  2.4017  1.1770 -0.3020
 1450SOL     OW 4390   3.257   2.352   1.798  0.4561 -0.0263 -0.2466
 1450SOL    HW1 4391   3.212   2.406   1.863  1.1118 -0.4037  0.5372
 1450SOL    HW2 4392   3.350   2.370   1.811  0.6081 -0.2271 -0.9818
 1451SOL     OW 4393   3.029   3.320   3.014  0.2466 -0.2332 -0.3389
 1451SOL    HW1 4394   3.078   3.356   2.941  0.4145  0.0458 -0.0914
 1451SOL    HW2 4395   2.941   3.356   3.004  0.7656  1.4267  0.7062
 1452SOL     OW 4396   2.867   2.809   2.660 -0.3675 -0.2026  0.2911
 1452SOL    HW1 4397   2.949   2.858   2.670 -0.8975  1.3803 -2.1652
 1452SOL    HW2 4398   2.892   2.728   2.617  0.0081 -0.1723  0.4491
 1453SOL     OW 4399   2.511   2.527   2.630  0.1063 -0.3082 -0.1165
 1453SOL    HW1 4400   2.509   2.572   2.546  1.6716 -0.2440 -0.1521
 1453SOL    HW2 4401   2.436   2.467   2.627 -0.8352  0.8610 -0.8671
 1454SOL     OW 4402   2.094   2.920   2.374 -0.2612  0.2033  0.5878
 1454SOL    HW1 4403   2.124   2.892   2.461 -0.9586 -1.1860  0.4045
 1454SOL    HW2 4404   2.090   2.839   2.323 -0.6253  0.8978 -0.5166
 1455SOL     OW 4405   6.126   3.451   2.642 -0.2126 -0.4962 -0.2870
 1455SOL    HW1 4406   6.060   3.517   2.620 -0.5914 -0.5518  0.6264
 1455SOL    HW2 4407   6.130   3.395   2.565 -0.9556 -0.2648 -0.5049
 1456SOL     OW 4408   2.142   3.323   2.818  0.1650  0.2058  0.0084
 1456SOL    HW1 4409   2.211   3.306   2.754  3.0766  1.6971  2.5272
 1456SOL    HW2 4410   2.153   3.257   2.885 -1.1559  0.2325  0.2883
 1457SOL     OW 4411   0.472   0.540   0.269  0.2812  0.6446  0.0976
 1457SOL    HW1 4412   0.485   0.565   0.178 -0.5909  0.2207 -0.1490
 1457SOL    HW2 4413   0.411   0.466   0.266  0.4031  0.4935  1.0080
 1458SOL     OW 4414   2.076   2.714   2.197 -0.1495  0.2642  0.3607
 1458SOL    HW1 4415   2.018   2.649   2.157 -0.7369  1.3764 -0.6841
 1458SOL    HW2 4416   2.146   2.726   2.133  0.3280  0.1637  0.8579
 1459SOL     OW 4417   3.045   2.244   2.305 -0.1974  0.7964  0.2895
 1459SOL    HW1 4418   3.090   2.161   2.289  2.9186  2.5263 -0.8069
 1459SOL    HW2 4419   2.978   2.248   2.237 -1.0725 -1.1750  0.9580
 1460SOL     OW 4420   1.604   0.684   0.103  0.4409  0.0608  0.1443
 1460SOL    HW1 4421   1.669   0.618   0.079  0.6862  0.3741 -0.0719
 1460SOL    HW2 4422   1.649   0.740   0.166  0.6055  0.6638 -0.4949
 1461SOL     OW 4423   2.415   2.183   2.166  0.0630 -0.5145  0.0680
 1461SOL    HW1 4424   2.364   2.108   2.196 -1.0732 -0.3510 -1.3633
 1461SOL    HW2 4425   2.390   2.254   2.225 -0.3285 -0.7685  0.2123
 1462SOL     OW 4426   4.324   1.318   0.350 -0.2504 -0.0110  0.0834
 1462SOL    HW1 4427   4.256   1.262   0.312  0.4869  0.4923 -2.1200
 1462SOL    HW2 4428   4.347   1.378   0.280  1.9281  0.3595  1.0388
 1463SOL     OW 4429   2.697   3.456   2.411  0.1398 -0.1001 -0.2125
 1463SOL    HW1 4430   2.602   3.451   2.402  0.3316 -2.2291 -2.0140
 1463SOL    HW2 4431   2.725   3.519   2.345  0.0731 -0.5605 -0.6828
 1464SOL     OW 4432   3.083   3.700   2.950  0.0751  0.4453  0.2079
 1464SOL    HW1 4433   2.989   3.690   2.957  0.1265  0.0732  0.3992
 1464SOL    HW2 4434   3.115   3.613   2.925  0.3065  0.7203 -0.4812
 1465SOL     OW 4435   6.172   2.952   2.741  0.0863 -0.6763 -0.4026
 1465SOL    HW1 4436   6.188   3.046   2.733 -1.7650 -0.1201  1.4278
 1465SOL    HW2 4437   6.221   2.926   2.820 -2.1870 -0.3997  1.2054
 1466SOL     OW 4438   3.645   2.348   2.153 -0.0891 -0.3482 -0.3766
 1466SOL    HW1 4439   3.568   2.366   2.099 -0.9649 -0.1335  0.8999
 1466SOL    HW2 4440   3.617   2.280   2.214 -0.0728  1.3160  1.6424
 1467SOL     OW 4441   3.613   3.443   2.657  0.0464  0.2802  0.7370
 1467SOL    HW1 4442   3.667   3.494   2.596 -1.5391 -0.6009 -1.5227
 1467SOL    HW2 4443   3.550   3.506   2.691 -0.8305  0.2643 -0.7512
 1468SOL     OW 4444   2.989   2.610   2.544  0.1391 -0.3549  0.7747
 1468SOL    HW1 4445   3.037   2.531   2.568  1.5693  0.1909 -0.1962
 1468SOL    HW2 4446   3.038   2.647   2.471 -1.4904  0.5077  0.0722
 1469SOL     OW 4447   2.391   3.157   1.941  0.0224 -0.1854  0.2410
 1469SOL    HW1 4448   2.445   3.080   1.929  0.3017  0.2856 -1.8502
 1469SOL    HW2 4449   2.453   3.228   1.957 -0.0427  0.1052 -0.7496
 1470SOL     OW 4450   3.808   2.153   2.950  0.6204  0.1865  0.3613
 1470SOL    HW1 4451   3.736   2.092   2.934 -1.3890  2.6030 -0.4566
 1470SOL    HW2 4452   3.789   2.189   3.037  1.0280  0.6114  0.2748
 1471SOL     OW 4453   2.391   2.395   2.344 -0.1636 -0.6992  0.1258
 1471SOL    HW1 4454   2.409   2.489   2.340  0.3340 -0.8122 -0.5347
 1471SOL    HW2 4455   2.299   2.389   2.372 -0.4608  0.0058 -0.6509
 1472SOL     OW 4456   2.970   2.731   2.169 -0.2550 -0.1561  0.6274
 1472SOL    HW1 4457   3.016   2.714   2.251 -0.2284  1.2421  0.9240
 1472SOL    HW2 4458   3.040   2.742   2.105 -0.2675 -0.9389  0.4736
 1473SOL     OW 4459   3.917   3.378   1.752  0.3175 -0.2866 -1.0647
 1473SOL    HW1 4460   3.830   3.343   1.771  0.1007  1.2591  1.2453
 1473SOL    HW2 4461   3.905   3.435   1.676 -0.5430 -0.5395 -1.1234
 1474SOL     OW 4462   2.999   3.021   3.015  0.4012 -0.4235  0.5697
 1474SOL    HW1 4463   2.904   3.017   3.024  0.3960  0.5040  1.0372
 1474SOL    HW2 4464   3.016   3.104   2.970  0.8794 -1.5717 -1.5129
 1475SOL     OW 4465   0.590   3.989   0.287  0.4737 -0.0470 -0.2383
 1475SOL    HW1 4466   0.609   4.030   0.202  0.1202 -1.0644 -0.8174
 1475SOL    HW2 4467   0.672   3.999   0.336  1.2830 -0.9687 -1.3271
 1476SOL     OW 4468   2.398   3.261   2.345  0.3907  0.1370 -0.0046
 1476SOL    HW1 4469   2.309   3.226   2.336  0.9891 -1.2865 -0.5940
 1476SOL    HW2 4470   2.397   3.342   2.294 -0.8101  0.6264  0.7480
 1477SOL     OW 4471   1.757   2.892   1.794 -0.3615 -0.0747  0.0433
 1477SOL    HW1 4472   1.663   2.877   1.785 -0.5642  1.6833 -1.4862
 1477SOL    HW2 4473   1.764   2.959   1.862 -0.0996 -0.9621  0.9188
 1478SOL     OW 4474   1.722   2.082   1.624 -0.6017 -0.7922  0.5011
 1478SOL    HW1 4475   1.790   2.083   1.557 -1.5516  1.6972 -0.5511
 1478SOL    HW2 4476   1.770   2.091   1.707  0.4713 -1.9504  0.0434
 1479SOL     OW 4477   1.776   1.946   2.120 -0.4294 -0.0711 -0.1646
 1479SOL    HW1 4478   1.784   1.852   2.104  0.5548 -0.0628  0.1983
 1479SOL    HW2 4479   1.838   1.963   2.191  1.9659  1.4291 -2.4782
 1480SOL     OW 4480   3.264   3.143   1.998  0.3164 -0.1104 -0.4313
 1480SOL    HW1 4481   3.326   3.071   2.004  1.0651  0.4599 -1.1474
 1480SOL    HW2 4482   3.202   3.116   1.931  1.1782  0.3191 -1.4282
 1481SOL     OW 4483   3.375   3.617   2.545 -0.6809  0.5501 -0.4739
 1481SOL    HW1 4484   3.406   3.675   2.475 -1.0385  0.4372 -0.7253
 1481SOL    HW2 4485   3.317   3.555   2.502  0.8817 -0.9885 -0.4841
 1482SOL     OW 4486   2.746   1.941   2.029  0.3073 -0.7674 -0.2670
 1482SOL    HW1 4487   2.792   1.857   2.026 -0.6506 -1.3100 -0.2131
 1482SOL    HW2 4488   2.805   1.999   2.078  0.2194 -1.9175  1.2583
 1483SOL     OW 4489   3.021   2.361   2.631  0.1814 -0.2674 -0.2883
 1483SOL    HW1 4490   3.005   2.268   2.613 -0.1157 -0.5994  1.5442
 1483SOL    HW2 4491   2.941   2.392   2.671  1.1821  0.0995  1.5338
 1484SOL     OW 4492   2.498   3.799   2.579  0.0298  0.0511 -0.8919
 1484SOL    HW1 4493   2.423   3.750   2.545 -0.0215 -1.6613  1.4437
 1484SOL    HW2 4494   2.462   3.885   2.601 -0.9987 -0.3581 -0.9069
 1485SOL     OW 4495   0.555   0.598  -0.012  0.3819 -0.6688 -0.3225
 1485SOL    HW1 4496   0.524   0.574  -0.100  0.1072 -1.6299  0.0213
 1485SOL    HW2 4497   0.598   0.682  -0.024 -1.2295  0.0959 -1.0524
 1486SOL     OW 4498   3.430   2.942   2.052 -0.1563  0.6632  0.5942
 1486SOL    HW1 4499   3.522   2.924   2.033  0.3403  3.2600  0.0940
 1486SOL    HW2 4500   3.418   2.917   2.143  0.7189 -0.7559  0.3456
 1487SOL     OW 4501   3.198   3.417   2.809  0.1693 -0.2423  0.3744
 1487SOL    HW1 4502   3.176   3.443   2.720  0.7396 -1.4028 -0.1280
 1487SOL    HW2 4503   3.224   3.325   2.801 -2.6433 -1.3205  2.1946
 1488SOL     OW 4504   2.117   3.002   2.024  0.0288 -0.8283  0.4443
 1488SOL    HW1 4505   2.174   2.955   2.085  0.8626 -0.2342  0.1378
 1488SOL    HW2 4506   2.176   3.043   1.962 -0.8385 -1.8589 -1.1133
 1489SOL     OW 4507   2.835   2.258   2.111  0.4910 -0.4436  0.1092
 1489SOL    HW1 4508   2.812   2.338   2.064 -0.5722 -1.8243 -1.8625
 1489SOL    HW2 4509   2.757   2.239   2.164 -0.0021 -1.1569 -0.8612
 1490SOL     OW 4510   2.788   3.660   2.218  0.0744  0.1428  0.9941
 1490SOL    HW1 4511   2.746   3.745   2.213  0.5944  0.3365 -0.8891
 1490SOL    HW2 4512   2.761   3.615   2.138 -0.0676 -1.4151  1.8810
 1491SOL     OW 4513   1.007   3.895   0.073 -0.1404 -0.1661 -0.6504
 1491SOL    HW1 4514   0.933   3.949   0.046  0.1785  1.6249  1.6680
 1491SOL    HW2 4515   0.968   3.823   0.121 -0.4550  0.5031  0.1306
 1492SOL     OW 4516   0.505   3.747   0.166 -0.2311 -0.3022  0.2074
 1492SOL    HW1 4517   0.430   3.791   0.126  0.8981  0.8316 -0.7529
 1492SOL    HW2 4518   0.574   3.813   0.165  0.7952 -1.3368  1.0220
 1493SOL     OW 4519   2.868   3.014   2.210  0.2708  0.2814  0.6262
 1493SOL    HW1 4520   2.835   3.015   2.300 -1.5788  0.2344 -0.0018
 1493SOL    HW2 4521   2.909   2.928   2.200 -1.5327 -0.6639  0.7983
 1494SOL     OW 4522   3.659   1.819   1.584 -0.2792 -0.4469  0.0695
 1494SOL    HW1 4523   3.583   1.801   1.529  0.3828  1.9685 -1.8419
 1494SOL    HW2 4524   3.726   1.758   1.554 -1.1882 -2.0891  1.2630
 1495SOL     OW 4525   3.313   2.346   2.617 -0.1705 -0.2519  0.6268
 1495SOL    HW1 4526   3.227   2.367   2.653  0.4951  1.7355  1.1968
 1495SOL    HW2 4527   3.373   2.353   2.691  0.6092 -0.7325  0.0613
 1496SOL     OW 4528   3.565   2.332   2.742  0.2049  0.5339 -0.2812
 1496SOL    HW1 4529   3.625   2.388   2.692  0.5723  0.8651  0.5103
 1496SOL    HW2 4530   3.621   2.264   2.780 -0.0584  0.3307 -0.2526
 1497SOL     OW 4531   2.246   2.358   1.790 -0.1974  0.1773 -0.2199
 1497SOL    HW1 4532   2.189   2.396   1.723  0.4164  0.1075 -0.7890
 1497SOL    HW2 4533   2.195   2.285   1.826  0.5052 -1.5722 -2.5682
 1498SOL     OW 4534   2.675   3.909   2.296  0.0009  0.3495  0.1420
 1498SOL    HW1 4535   2.751   3.967   2.293 -1.7449  2.8214  0.6397
 1498SOL    HW2 4536   2.654   3.901   2.389 -0.7445  0.2752 -0.0277
 1499SOL     OW 4537   1.631   0.236   0.255  0.3138 -0.9117 -0.3200
 1499SOL    HW1 4538   1.671   0.157   0.218  0.0537 -1.6740  0.9804
 1499SOL    HW2 4539   1.639   0.225   0.350  0.1413  0.5648 -0.1154
 1500SOL     OW 4540   2.174   4.203   1.052  0.8605 -0.3999  0.6901
 1500SOL    HW1 4541   2.223   4.163   1.124  0.9378 -1.6468 -0.0063
 1500SOL    HW2 4542   2.239   4.212   0.982  1.0373  1.7714  1.0900
 1501SOL     OW 4543   1.675   3.865   0.803 -0.5413 -0.3381  0.5059
 1501SOL    HW1 4544   1.619   3.794   0.835  0.0847 -1.2805 -0.4359
 1501SOL    HW2 4545   1.711   3.832   0.721  0.2339  0.8480  0.3489
 1502SOL     OW 4546   3.821   4.259   0.509  0.2320  0.2639 -0.4241
 1502SOL    HW1 4547   3.770   4.294   0.582 -0.1859  2.4157 -1.6593
 1502SOL    HW2 4548   3.774   4.288   0.431  1.9176  0.0123 -1.5839
 1503SOL     OW 4549   2.686   3.675   1.711  0.0661 -0.2242  0.2292
 1503SOL    HW1 4550   2.758   3.725   1.672  1.1553 -1.0234  1.1415
 1503SOL    HW2 4551   2.609   3.729   1.696  0.7036  0.3100 -1.4582
 1504SOL     OW 4552   3.602   3.885   0.461 -0.2215  0.0788 -0.9298
 1504SOL    HW1 4553   3.569   3.841   0.539 -1.9249  0.5096 -1.3587
 1504SOL    HW2 4554   3.625   3.814   0.401 -2.9231 -0.3733 -1.6110
 1505SOL     OW 4555   1.912   4.288   1.032 -0.4227  0.0222  0.2103
 1505SOL    HW1 4556   2.001   4.253   1.020 -0.3136 -0.1059  1.2449
 1505SOL    HW2 4557   1.897   4.342   0.955  0.3978 -0.2880 -0.1827
 1506SOL     OW 4558   2.713   3.931   0.548  0.5476 -0.6508 -0.3990
 1506SOL    HW1 4559   2.745   3.911   0.636 -1.1934 -1.3495  0.1420
 1506SOL    HW2 4560   2.789   3.919   0.491  1.7023 -0.2286  0.9875
 1507SOL     OW 4561   2.011   4.212   1.960 -0.4128  0.1035 -0.0516
 1507SOL    HW1 4562   2.037   4.251   1.877 -0.1424  0.4225  0.1793
 1507SOL    HW2 4563   2.069   4.253   2.025 -2.0545  1.5072  0.6015
 1508SOL     OW 4564   3.122   4.043   1.016 -0.0749 -0.4378 -0.0100
 1508SOL    HW1 4565   3.121   4.064   0.922 -3.5132 -0.4515 -0.1176
 1508SOL    HW2 4566   3.201   4.085   1.049  1.7315 -1.1574 -3.0145
 1509SOL     OW 4567   3.265   4.606   2.098 -1.1307 -0.2344  0.0654
 1509SOL    HW1 4568   3.219   4.522   2.100  0.0090 -0.8904 -0.3541
 1509SOL    HW2 4569   3.335   4.594   2.033 -0.0109  0.5389  1.0823
 1510SOL     OW 4570   2.840   4.032   1.029 -0.0960  0.1584 -0.3190
 1510SOL    HW1 4571   2.824   4.060   1.119 -0.3923 -1.2569  0.0930
 1510SOL    HW2 4572   2.933   4.048   1.015  0.0168  0.1272  0.3559
 1511SOL     OW 4573   3.466   4.556   0.352 -0.2957  0.2838  0.2148
 1511SOL    HW1 4574   3.494   4.562   0.260 -0.8865 -0.4815 -0.0205
 1511SOL    HW2 4575   3.405   4.628   0.363 -1.8323 -0.8483 -0.5895
 1512SOL     OW 4576   2.130   4.540   0.705 -0.0648  0.3046  0.1369
 1512SOL    HW1 4577   2.119   4.445   0.712  1.5173  0.1421  0.6459
 1512SOL    HW2 4578   2.156   4.555   0.614 -1.2224  0.3710 -0.2017
 1513SOL     OW 4579   3.661   4.216   2.008 -0.1537  0.2283  0.3682
 1513SOL    HW1 4580   3.725   4.265   1.957  0.2859 -1.0902 -0.4054
 1513SOL    HW2 4581   3.706   4.196   2.090  0.6980 -1.2134 -0.4091
 1514SOL     OW 4582   2.469   3.907   1.109  0.1682 -0.0046  1.0508
 1514SOL    HW1 4583   2.406   3.837   1.122 -0.2009  0.3231  1.0647
 1514SOL    HW2 4584   2.532   3.897   1.180 -0.9412  0.8144  2.1959
 1515SOL     OW 4585   3.284   4.602   0.814  0.8455 -0.4172 -0.3472
 1515SOL    HW1 4586   3.195   4.635   0.811  0.9160 -0.2461 -0.6184
 1515SOL    HW2 4587   3.275   4.507   0.819  0.6515 -0.5192 -2.1038
 1516SOL     OW 4588   1.980   3.868   1.399 -0.2163 -0.0884  0.5140
 1516SOL    HW1 4589   1.922   3.804   1.440 -0.8715  0.2817  0.1863
 1516SOL    HW2 4590   1.963   3.860   1.305  1.4542 -1.1002  0.2429
 1517SOL     OW 4591   3.312   4.308   0.290  0.1588  0.8128 -0.9639
 1517SOL    HW1 4592   3.355   4.385   0.328  2.3131 -0.9057  0.3375
 1517SOL    HW2 4593   3.384   4.245   0.275 -1.7880 -2.1211  0.9690
 1518SOL     OW 4594   3.258   3.922   1.878  0.0963 -0.7369  0.3010
 1518SOL    HW1 4595   3.244   3.843   1.930  0.1985 -1.2766 -0.4615
 1518SOL    HW2 4596   3.340   3.958   1.910  0.0505 -0.9466  0.6570
 1519SOL     OW 4597   2.768   4.006   1.338  0.0129  0.4470 -0.1674
 1519SOL    HW1 4598   2.862   3.997   1.350 -0.3002  0.0306  2.5708
 1519SOL    HW2 4599   2.738   3.917   1.319  0.0379  0.3871  0.0748
 1520SOL     OW 4600   3.070   4.042   1.693 -0.2568  0.2328 -0.2304
 1520SOL    HW1 4601   2.997   4.038   1.754  0.9898  1.7940  1.4512
 1520SOL    HW2 4602   3.147   4.019   1.745  0.9822  2.5277 -0.8997
 1521SOL     OW 4603   2.450   3.962   0.518  0.4369 -0.4411 -0.5701
 1521SOL    HW1 4604   2.440   3.867   0.515 -0.4490 -0.3899  0.2974
 1521SOL    HW2 4605   2.542   3.976   0.540  0.7855 -1.0749 -1.5682
 1522SOL     OW 4606   2.963   3.947   0.348  0.6770  0.2507 -0.5734
 1522SOL    HW1 4607   2.936   3.907   0.266  0.9362  1.1784 -1.1196
 1522SOL    HW2 4608   3.057   3.930   0.354  0.6118 -0.0363 -0.3401
 1523SOL     OW 4609   2.171   4.061   1.388  0.2182 -0.3280  0.1840
 1523SOL    HW1 4610   2.110   3.988   1.388 -0.4144  0.1829 -0.6352
 1523SOL    HW2 4611   2.192   4.075   1.480  1.2539 -2.2573  0.2849
 1524SOL     OW 4612   2.619   3.747   1.310  0.0699 -0.5146  0.3344
 1524SOL    HW1 4613   2.682   3.690   1.267 -1.8437 -1.9103 -0.8166
 1524SOL    HW2 4614   2.534   3.709   1.287 -1.2073  1.4922  1.4796
 1525SOL     OW 4615   2.425   3.801   0.831 -0.5586  0.2846 -0.2298
 1525SOL    HW1 4616   2.509   3.835   0.800 -0.7173  0.8042 -0.0913
 1525SOL    HW2 4617   2.390   3.870   0.887 -0.9609 -0.0380 -0.0799
 1526SOL     OW 4618   3.628   4.210   0.849 -0.3018  0.5368  0.3026
 1526SOL    HW1 4619   3.628   4.116   0.867  0.7944  0.2266 -1.0853
 1526SOL    HW2 4620   3.624   4.216   0.753  0.9573  1.8531  0.2979
 1527SOL     OW 4621   2.007   4.227   0.703  0.0034 -0.1059 -0.0711
 1527SOL    HW1 4622   1.987   4.167   0.774 -0.1078 -0.1430 -0.1334
 1527SOL    HW2 4623   2.025   4.171   0.628  2.5522 -0.1867  0.4988
 1528SOL     OW 4624   3.079   3.775   1.090 -0.0189 -0.5305  0.1501
 1528SOL    HW1 4625   3.123   3.859   1.073  0.1822 -0.6141  0.2565
 1528SOL    HW2 4626   3.002   3.799   1.141 -1.9185  0.0222 -2.7438
 1529SOL     OW 4627   3.065   4.016   1.423  0.2125  0.3450 -0.1210
 1529SOL    HW1 4628   3.112   4.072   1.361  1.9916 -0.0716  0.7739
 1529SOL    HW2 4629   3.087   4.052   1.509 -0.2582 -0.5211  0.3750
 1530SOL     OW 4630   2.741   4.371   1.082  0.4344 -1.3856  0.3219
 1530SOL    HW1 4631   2.703   4.410   1.002  1.0865 -0.2339  0.5437
 1530SOL    HW2 4632   2.697   4.286   1.090  0.2028 -1.4409 -1.1438
 1531SOL     OW 4633   2.294   3.702   1.753 -0.5344 -0.1852  0.0726
 1531SOL    HW1 4634   2.341   3.754   1.688  0.9155 -0.3394  0.9442
 1531SOL    HW2 4635   2.277   3.763   1.825  1.0032 -0.8123  1.0176
 1532SOL     OW 4636   2.429   4.153   1.436  0.5114  0.3778  0.2451
 1532SOL    HW1 4637   2.377   4.173   1.514  0.5798  0.6512  0.2231
 1532SOL    HW2 4638   2.365   4.131   1.369  0.4935 -1.0759  0.7067
 1533SOL     OW 4639   3.164   4.256   1.304 -0.3039 -0.4464 -0.7087
 1533SOL    HW1 4640   3.247   4.302   1.292 -0.0870 -1.0890 -1.8716
 1533SOL    HW2 4641   3.106   4.295   1.238 -0.3598 -1.2728 -1.1581
 1534SOL     OW 4642   2.342   3.704   0.413  0.1094  0.8792 -0.1336
 1534SOL    HW1 4643   2.249   3.724   0.403 -0.1454  0.0973  0.5336
 1534SOL    HW2 4644   2.379   3.716   0.326 -1.1926 -1.7124 -1.1513
 1535SOL     OW 4645   3.710   4.306   0.252  0.1058 -0.2399  0.5102
 1535SOL    HW1 4646   3.784   4.255   0.221 -0.3565 -0.9481  0.5472
 1535SOL    HW2 4647   3.737   4.397   0.241  1.1216 -0.4836  0.8695
 1536SOL     OW 4648   3.406   4.062   0.096  0.3743  0.0625  0.0431
 1536SOL    HW1 4649   3.448   4.052   0.181 -0.9815 -0.9443  0.6239
 1536SOL    HW2 4650   3.392   3.973   0.065  0.0092  0.4007 -0.8062
 1537SOL     OW 4651   2.372   4.236   0.881 -0.5687 -0.2034  0.2968
 1537SOL    HW1 4652   2.341   4.217   0.792  0.7095  0.8055 -0.3960
 1537SOL    HW2 4653   2.467   4.224   0.876 -0.4681 -0.0151  1.5120
 1538SOL     OW 4654   2.861   4.090   1.872  0.0377  0.1413  0.1720
 1538SOL    HW1 4655   2.885   4.177   1.904  1.0694 -0.5680  1.4440
 1538SOL    HW2 4656   2.791   4.062   1.930  0.1172 -0.1070  0.1481
 1539SOL     OW 4657   2.912   3.792   1.606  0.4258  0.2333 -0.2156
 1539SOL    HW1 4658   2.935   3.789   1.698 -0.0744  0.9017 -0.0583
 1539SOL    HW2 4659   2.965   3.862   1.569 -0.3048  0.8265 -0.1542
 1540SOL     OW 4660   1.778   4.082   1.160  0.1925  0.0928  0.3510
 1540SOL    HW1 4661   1.848   4.100   1.223  0.9404  0.0282 -0.4471
 1540SOL    HW2 4662   1.811   4.115   1.076 -0.8225  0.2555 -0.0096
 1541SOL     OW 4663   1.992   4.247   1.649 -0.5705 -0.5309  0.6023
 1541SOL    HW1 4664   1.948   4.163   1.657  1.0787 -1.7610 -1.9867
 1541SOL    HW2 4665   1.965   4.280   1.563  0.1828  0.7821  0.8332
 1542SOL     OW 4666   2.719   4.259   0.285  0.5155  0.2857  0.0886
 1542SOL    HW1 4667   2.770   4.316   0.343  0.9923 -0.1483  0.1029
 1542SOL    HW2 4668   2.783   4.196   0.252  0.1847  0.3377 -0.6681
 1543SOL     OW 4669   3.392   4.162   1.045 -0.1890 -0.0668 -0.6580
 1543SOL    HW1 4670   3.435   4.188   0.964  0.5627 -1.0162 -0.5803
 1543SOL    HW2 4671   3.407   4.236   1.104  0.2005  0.1725 -1.0468
 1544SOL     OW 4672   2.600   4.109   0.980  0.3434 -1.1088 -0.0641
 1544SOL    HW1 4673   2.551   4.042   1.028  1.6756 -0.9727  1.5927
 1544SOL    HW2 4674   2.692   4.089   0.999  0.8889 -0.4325 -1.7986
 1545SOL     OW 4675   3.540   4.112   0.320 -0.0437 -0.3511 -0.0603
 1545SOL    HW1 4676   3.610   4.178   0.318 -0.9340  0.7221  1.4718
 1545SOL    HW2 4677   3.583   4.032   0.349  0.3798  0.6463  2.3479
 1546SOL     OW 4678   3.752   3.117   0.699  0.6915 -0.0774 -0.3304
 1546SOL    HW1 4679   3.748   3.053   0.770 -0.2657 -1.9308 -1.9602
 1546SOL    HW2 4680   3.845   3.140   0.693  0.7013  0.7036  1.9499
 1547SOL     OW 4681   1.915   3.975   0.884 -0.3217  0.3625  0.6245
 1547SOL    HW1 4682   1.834   3.930   0.859 -0.0370  0.1869  0.0260
 1547SOL    HW2 4683   1.950   3.923   0.957 -1.0219  0.7427  1.2548
 1548SOL     OW 4684   2.742   3.834   0.841 -0.6598  0.2468  0.2292
 1548SOL    HW1 4685   2.780   3.901   0.899 -0.7429 -0.6549  1.3601
 1548SOL    HW2 4686   2.815   3.777   0.819 -0.2454  1.4908 -1.9781
 1549SOL     OW 4687   3.530   3.966   1.228 -0.1476  0.0261 -0.6216
 1549SOL    HW1 4688   3.470   4.022   1.177  0.9807  0.8486 -1.0766
 1549SOL    HW2 4689   3.528   3.882   1.183 -1.4215 -0.1554 -0.2732
 1550SOL     OW 4690   2.900   3.722   1.324 -0.4571 -0.7877 -0.6144
 1550SOL    HW1 4691   2.889   3.721   1.420 -0.4506 -1.4529 -0.6174
 1550SOL    HW2 4692   2.926   3.633   1.302  2.9219  0.1317 -0.8624
 1551SOL     OW 4693   1.523   4.145   0.427 -0.0918 -0.3330 -0.0375
 1551SOL    HW1 4694   1.575   4.220   0.398 -1.7711  1.1847  0.6495
 1551SOL    HW2 4695   1.438   4.156   0.384  0.3603 -3.3168 -1.9666
 1552SOL     OW 4696   1.621   3.967   0.062  0.3239 -0.0666 -0.2668
 1552SOL    HW1 4697   1.554   4.034   0.078  0.7331  0.2594  0.1150
 1552SOL    HW2 4698   1.703   4.009   0.087  0.8415 -0.0377 -1.9110
 1553SOL     OW 4699   2.511   3.847   1.614  0.2556 -0.1589 -0.3974
 1553SOL    HW1 4700   2.526   3.840   1.520  0.0411  0.7919 -0.5178
 1553SOL    HW2 4701   2.505   3.942   1.630 -1.5100 -0.3419  0.2839
 1554SOL     OW 4702   3.542   4.245   0.590  0.3911 -0.0611 -0.2822
 1554SOL    HW1 4703   3.507   4.188   0.523  0.3292 -0.3013 -0.0478
 1554SOL    HW2 4704   3.500   4.329   0.575  1.8020  0.4371 -1.7355
 1555SOL     OW 4705   3.058   4.299   1.578  0.0189  0.2266  0.4209
 1555SOL    HW1 4706   3.054   4.303   1.483 -1.1401 -0.8652  0.3987
 1555SOL    HW2 4707   3.073   4.206   1.598 -0.9957  0.2359  1.3106
 1556SOL     OW 4708   3.651   3.937   0.851  0.5042  0.9226 -0.2802
 1556SOL    HW1 4709   3.662   3.893   0.936  0.4732  0.8866 -0.2949
 1556SOL    HW2 4710   3.741   3.952   0.821  0.5147  0.4781 -0.4771
 1557SOL     OW 4711   1.767   4.011   0.473 -0.1757 -0.1874  0.3016
 1557SOL    HW1 4712   1.685   4.053   0.449  0.2292 -0.2690 -1.3396
 1557SOL    HW2 4713   1.743   3.919   0.488 -0.5190 -0.0341  0.7114
 1558SOL     OW 4714   2.222   4.104   1.649  0.6081  0.5576  0.8976
 1558SOL    HW1 4715   2.167   4.183   1.649  0.2298  0.3116 -0.0075
 1558SOL    HW2 4716   2.259   4.101   1.737 -0.1984  1.1757  1.2792
 1559SOL     OW 4717   3.313   3.621   1.086  0.5174  0.6951  0.1988
 1559SOL    HW1 4718   3.297   3.535   1.124  0.1566  0.3275 -0.7475
 1559SOL    HW2 4719   3.233   3.670   1.104  0.6020  0.7383  0.4676
 1560SOL     OW 4720   3.151   3.499   0.747 -0.1606 -0.0103  0.0222
 1560SOL    HW1 4721   3.124   3.463   0.663  0.5411  1.0647 -0.6899
 1560SOL    HW2 4722   3.239   3.533   0.732 -0.6116  1.6068  0.7464
 1561SOL     OW 4723   3.500   4.563   0.625 -0.1216 -0.1358  0.4134
 1561SOL    HW1 4724   3.475   4.567   0.533  0.1034 -0.2663  0.3470
 1561SOL    HW2 4725   3.423   4.596   0.672 -0.4239 -0.5552  0.2135
 1562SOL     OW 4726   3.454   3.820   0.698  0.7812  0.1391 -0.0225
 1562SOL    HW1 4727   3.453   3.743   0.755  0.2477  0.2212  0.0859
 1562SOL    HW2 4728   3.508   3.884   0.745  1.6273 -0.3198 -0.3326
 1563SOL     OW 4729   6.374   3.984   3.004 -0.3401 -0.3866  0.5714
 1563SOL    HW1 4730   6.329   3.929   2.939  0.3728 -0.2002 -0.1032
 1563SOL    HW2 4731   6.465   3.954   3.001 -0.0616  0.4400  0.6143
 1564SOL     OW 4732   1.903   3.652   2.361  0.0073 -0.2950 -0.3908
 1564SOL    HW1 4733   1.848   3.573   2.365  0.2114 -0.3934  2.6549
 1564SOL    HW2 4734   1.985   3.626   2.403  1.3186  0.7172 -2.1749
 1565SOL     OW 4735   3.350   4.288   1.800 -0.1430  0.2862  0.0489
 1565SOL    HW1 4736   3.395   4.204   1.789  0.7123  0.7346  0.0348
 1565SOL    HW2 4737   3.308   4.304   1.716 -0.9459 -0.4725  0.2794
 1566SOL     OW 4738   3.247   4.100   2.234 -0.0165 -0.0206 -0.2941
 1566SOL    HW1 4739   3.201   4.115   2.316 -0.4087  0.1041 -0.5312
 1566SOL    HW2 4740   3.326   4.052   2.258  0.2681  0.6983  0.2470
 1567SOL     OW 4741   3.080   4.118   2.848  0.2973  0.1333  0.8030
 1567SOL    HW1 4742   3.052   4.200   2.807  2.4201  0.5779  0.1065
 1567SOL    HW2 4743   3.003   4.061   2.843 -0.3366  1.0717 -1.4267
 1568SOL     OW 4744   1.834   4.196   2.286 -0.1581 -0.3889  0.1112
 1568SOL    HW1 4745   1.929   4.198   2.300 -0.1674  1.1242  0.1939
 1568SOL    HW2 4746   1.801   4.137   2.354  0.6647 -0.3661  0.5463
 1569SOL     OW 4747   2.455   3.523   2.260  0.1741  0.0225 -0.3408
 1569SOL    HW1 4748   2.435   3.616   2.268  0.9475  0.1744 -0.0869
 1569SOL    HW2 4749   2.457   3.507   2.166  3.1408  1.0031 -0.5646
 1570SOL     OW 4750   3.239   3.902   2.729 -0.3028 -0.0005  0.2613
 1570SOL    HW1 4751   3.198   3.979   2.768 -0.2658  0.9960 -1.5952
 1570SOL    HW2 4752   3.171   3.835   2.731 -0.2318 -0.0888  2.1965
 1571SOL     OW 4753   1.921   4.649   2.320  0.0934  0.0920 -0.6749
 1571SOL    HW1 4754   1.954   4.581   2.261  2.3383  0.4164  0.0845
 1571SOL    HW2 4755   1.939   4.615   2.408 -2.1093  0.1330 -0.1502
 1572SOL     OW 4756   3.145   3.815   2.172  0.0329  0.0433 -0.4066
 1572SOL    HW1 4757   3.152   3.904   2.207 -1.5369  0.0333 -0.0297
 1572SOL    HW2 4758   3.067   3.816   2.117  1.1224 -0.5899 -2.0423
 1573SOL     OW 4759   2.247   3.653   2.568 -0.4071 -0.1229 -0.4734
 1573SOL    HW1 4760   2.179   3.596   2.533 -0.4069 -0.1651 -0.4046
 1573SOL    HW2 4761   2.217   3.742   2.547 -1.1743 -0.0673  0.7605
 1574SOL     OW 4762   3.343   4.315   2.526 -0.1441 -0.1622  0.0252
 1574SOL    HW1 4763   3.273   4.249   2.523  0.7244 -1.1374  0.5486
 1574SOL    HW2 4764   3.370   4.327   2.435 -0.8505  0.0803 -0.1593
 1575SOL     OW 4765   3.496   3.705   2.305  0.2641 -0.6415 -1.1945
 1575SOL    HW1 4766   3.479   3.628   2.252 -0.4777 -1.6755  0.4841
 1575SOL    HW2 4767   3.589   3.723   2.292 -0.0116 -0.4983 -3.2611
 1576SOL     OW 4768   2.372   4.103   1.872  0.1291 -0.4474  0.0728
 1576SOL    HW1 4769   2.351   4.030   1.930  1.4007 -1.2656 -0.4669
 1576SOL    HW2 4770   2.467   4.105   1.870  0.1040  0.1343 -1.2868
 1577SOL     OW 4771   3.274   4.244   2.964  0.2983 -0.3358 -0.2023
 1577SOL    HW1 4772   3.338   4.236   2.893 -0.2398  0.5474 -0.8167
 1577SOL    HW2 4773   3.199   4.192   2.934  0.2341 -0.3143 -0.0806
 1578SOL     OW 4774   2.252   3.828   2.000  0.5588  0.1077  0.1960
 1578SOL    HW1 4775   2.302   3.800   2.077  0.1081  0.4481  0.6145
 1578SOL    HW2 4776   2.170   3.862   2.036 -0.0385 -0.5839 -0.5007
 1579SOL     OW 4777   1.805   3.694   1.513  0.0837 -0.1646 -0.5379
 1579SOL    HW1 4778   1.863   3.628   1.550  0.1891  0.4154  0.3557
 1579SOL    HW2 4779   1.749   3.721   1.586 -1.0322 -0.4001 -1.2737
 1580SOL     OW 4780   2.906   4.038   2.338 -0.4573 -0.1028  0.1763
 1580SOL    HW1 4781   2.939   3.997   2.417 -0.0408 -0.6037 -0.2479
 1580SOL    HW2 4782   2.943   4.126   2.339  0.0928 -0.3269  0.2136
 1581SOL     OW 4783   4.329   2.094   0.143  0.0941  0.5430 -0.2332
 1581SOL    HW1 4784   4.395   2.040   0.185  0.1537  1.5651  1.0291
 1581SOL    HW2 4785   4.346   2.084   0.049 -0.3853 -2.2109 -0.1112
 1582SOL     OW 4786   0.150   1.719   0.022  0.4439 -0.0451  0.3342
 1582SOL    HW1 4787   0.179   1.716  -0.069  1.3654 -0.0071  0.6199
 1582SOL    HW2 4788   0.199   1.649   0.066  0.4805  0.3401  0.9272
 1583SOL     OW 4789   3.315   3.660   2.036 -0.0722  0.4715 -0.6664
 1583SOL    HW1 4790   3.280   3.709   2.111  0.2093  0.4952 -0.5518
 1583SOL    HW2 4791   3.401   3.697   2.021 -0.3973  0.9412 -1.4432
 1584SOL     OW 4792   3.445   4.210   2.755  0.5253 -0.0561 -0.0726
 1584SOL    HW1 4793   3.478   4.141   2.696  2.7969  1.7269 -1.0257
 1584SOL    HW2 4794   3.393   4.267   2.699 -0.2364 -0.2223  0.4394
 1585SOL     OW 4795   2.449   4.223   2.134 -0.5167  0.2607 -0.1768
 1585SOL    HW1 4796   2.364   4.262   2.113 -0.9663  0.0674  1.1802
 1585SOL    HW2 4797   2.451   4.220   2.229  1.5088  1.2908 -0.1438
 1586SOL     OW 4798   2.444   4.219   2.391 -0.1066 -0.0237 -0.5045
 1586SOL    HW1 4799   2.391   4.142   2.410 -1.2467  0.7443 -0.4462
 1586SOL    HW2 4800   2.510   4.221   2.460 -1.1009 -0.0397  0.4838
 1587SOL     OW 4801   2.403   3.792   2.236 -0.1913 -0.0718 -0.5145
 1587SOL    HW1 4802   2.353   3.835   2.305 -1.1406 -1.6623 -0.1663
 1587SOL    HW2 4803   2.478   3.850   2.221 -1.0829  1.3689  0.3429
 1588SOL     OW 4804   3.514   4.024   1.888 -0.6108 -0.3165 -0.2379
 1588SOL    HW1 4805   3.577   3.964   1.849 -1.1525 -2.0306  1.4102
 1588SOL    HW2 4806   3.568   4.085   1.939 -0.1771 -2.8094  2.6009
 1589SOL     OW 4807   3.557   3.799   2.036 -0.0220 -0.2611 -0.5019
 1589SOL    HW1 4808   3.639   3.759   2.065 -0.2414 -0.7277 -0.5299
 1589SOL    HW2 4809   3.576   3.830   1.947 -0.5370 -2.4346 -1.4507
 1590SOL     OW 4810   6.302   3.832   2.814  0.5836  0.0171 -0.1578
 1590SOL    HW1 4811   6.216   3.842   2.772  0.9086  0.1363 -0.8026
 1590SOL    HW2 4812   6.322   3.739   2.806  1.1244  0.2125 -1.2361
 1591SOL     OW 4813   2.768   4.283   2.525 -0.5875  0.6566 -0.8171
 1591SOL    HW1 4814   2.759   4.374   2.552  1.2123  0.9998 -1.2497
 1591SOL    HW2 4815   2.810   4.287   2.439 -0.9555 -0.5845 -1.0873
 1592SOL     OW 4816   6.175   4.174   3.038  0.1269 -0.1077 -0.2479
 1592SOL    HW1 4817   6.132   4.229   2.973  0.7460 -0.6579 -1.1452
 1592SOL    HW2 4818   6.146   4.085   3.017  0.1876 -0.2733  0.3440
 1593SOL     OW 4819   2.642   4.071   2.031  0.0175 -0.0609  0.1313
 1593SOL    HW1 4820   2.573   4.133   2.055  1.2776  1.2414  0.5615
 1593SOL    HW2 4821   2.651   4.015   2.108 -0.5938 -0.2829  0.0483
 1594SOL     OW 4822   1.173   2.253   0.395 -1.0476  0.2040 -0.4047
 1594SOL    HW1 4823   1.126   2.320   0.345 -0.8446  1.7574  1.3325
 1594SOL    HW2 4824   1.139   2.262   0.484  0.2656 -0.8122  0.2381
 1595SOL     OW 4825   3.433   3.971   2.410 -0.2820 -0.1081 -0.6318
 1595SOL    HW1 4826   3.480   3.971   2.494 -2.0170 -1.3048  0.4096
 1595SOL    HW2 4827   3.440   3.881   2.378 -0.2239  0.1760 -1.4524
 1596SOL     OW 4828   1.462   1.828   0.092 -0.0541 -0.5270  0.0513
 1596SOL    HW1 4829   1.495   1.765   0.028  2.0093 -0.1594  0.6924
 1596SOL    HW2 4830   1.420   1.896   0.039 -0.8968 -1.6122 -0.7242
 1597SOL     OW 4831   2.055   3.933   2.268  0.1710 -0.5161  0.4988
 1597SOL    HW1 4832   1.986   3.918   2.333  0.5547 -0.1346  1.0009
 1597SOL    HW2 4833   2.133   3.953   2.320  0.1017  1.4804 -0.0816
 1598SOL     OW 4834   2.912   3.924   2.597 -0.2316 -0.7257 -0.1265
 1598SOL    HW1 4835   2.904   3.835   2.561  0.0143 -1.0440  0.5698
 1598SOL    HW2 4836   2.897   3.912   2.691  0.5137 -0.1450  0.0756
 1599SOL     OW 4837   1.972   3.549   1.875 -0.1417  0.0463  0.3005
 1599SOL    HW1 4838   2.035   3.481   1.899  0.1173  0.2744  0.2769
 1599SOL    HW2 4839   1.950   3.593   1.957 -0.3126 -0.0690  0.3167
 1600SOL     OW 4840   1.907   3.978   2.050  0.2986 -0.3543  0.1551
 1600SOL    HW1 4841   1.950   4.053   2.008 -1.7810  1.0637  0.4318
 1600SOL    HW2 4842   1.964   3.956   2.124  2.2384 -0.7060 -1.3798
 1601SOL     OW 4843   3.150   3.497   2.427 -0.0295 -0.2302 -0.3921
 1601SOL    HW1 4844   3.185   3.463   2.344 -1.0534 -0.2610 -0.8279
 1601SOL    HW2 4845   3.125   3.419   2.476 -0.3312 -0.1850 -0.4697
 1602SOL     OW 4846   2.193   4.320   2.142  0.8842 -0.5955 -0.2409
 1602SOL    HW1 4847   2.166   4.402   2.101 -0.9812 -1.3365 -0.5908
 1602SOL    HW2 4848   2.159   4.325   2.231  1.7983 -0.5142  0.1170
 1603SOL     OW 4849   3.666   3.530   1.999 -0.1709 -0.1153 -0.3309
 1603SOL    HW1 4850   3.610   3.521   2.076  0.3676  0.7244  0.1757
 1603SOL    HW2 4851   3.657   3.447   1.953 -0.5025 -0.6293  0.6367
 1604SOL     OW 4852   3.180   4.110   2.524  0.3384  0.1100  0.2216
 1604SOL    HW1 4853   3.132   4.087   2.604  0.7086 -0.4024  0.3012
 1604SOL    HW2 4854   3.225   4.029   2.499 -0.3954  0.0456 -0.9561
 1605SOL     OW 4855   3.504   3.923   2.660  0.1247  0.0340 -0.5827
 1605SOL    HW1 4856   3.413   3.917   2.690  0.2243  0.8227 -0.0979
 1605SOL    HW2 4857   3.554   3.874   2.726  0.3028  1.4816  0.4098
 1606SOL     OW 4858   4.160   4.700   0.995  0.4123  0.0628  0.3128
 1606SOL    HW1 4859   4.072   4.716   1.028  0.5555 -0.7135  1.1314
 1606SOL    HW2 4860   4.149   4.681   0.902 -0.4259 -1.1482  0.6362
 1607SOL     OW 4861   3.792   0.579   0.533  0.2432  0.1985  0.2636
 1607SOL    HW1 4862   3.708   0.556   0.573  0.8301 -2.2981  0.2470
 1607SOL    HW2 4863   3.769   0.630   0.455 -1.3552 -1.3443 -0.3301
 1608SOL     OW 4864   4.188   1.261   0.908 -0.4115  0.1666  0.1993
 1608SOL    HW1 4865   4.263   1.203   0.896 -1.2308 -1.1702  1.1969
 1608SOL    HW2 4866   4.179   1.307   0.825  1.0192 -0.2501 -0.2067
 1609SOL     OW 4867   4.006   1.698   0.684 -0.1372 -0.4152 -0.1023
 1609SOL    HW1 4868   3.984   1.606   0.670  0.0520 -0.3650 -0.7567
 1609SOL    HW2 4869   3.939   1.730   0.744 -0.1497 -1.0028  0.2065
 1610SOL     OW 4870   4.138   4.425   1.343 -0.3411 -0.1810 -0.7454
 1610SOL    HW1 4871   4.140   4.342   1.296 -0.9436 -1.3350  1.1950
 1610SOL    HW2 4872   4.208   4.418   1.408 -0.7620  0.5954 -0.1843
 1611SOL     OW 4873   4.314   1.618   0.469  0.0368  0.2035  0.0057
 1611SOL    HW1 4874   4.275   1.605   0.555 -1.0481 -0.1887 -0.5210
 1611SOL    HW2 4875   4.401   1.579   0.476 -0.4051 -0.7162  0.6541
 1612SOL     OW 4876   3.914   1.516   0.352  0.3916 -0.1457  0.0646
 1612SOL    HW1 4877   3.904   1.565   0.434  0.0116 -0.1881  0.0425
 1612SOL    HW2 4878   3.878   1.430   0.371 -1.3620  0.3856 -0.6747
 1613SOL     OW 4879   4.014   1.236   0.552 -0.4652  0.1608  1.0908
 1613SOL    HW1 4880   3.974   1.197   0.474 -0.2444  1.7805  0.1456
 1613SOL    HW2 4881   3.955   1.307   0.577 -0.3368 -0.0961  2.1936
 1614SOL     OW 4882   3.924   0.845   0.733 -0.3149  0.0060 -0.2646
 1614SOL    HW1 4883   3.906   0.768   0.788 -1.4312  0.5397  0.1505
 1614SOL    HW2 4884   4.009   0.827   0.694 -1.4056 -2.4361 -1.8197
 1615SOL     OW 4885   3.572   5.189   1.788  0.1850 -0.3833 -0.2237
 1615SOL    HW1 4886   3.643   5.210   1.849 -1.0203 -1.1728  1.5419
 1615SOL    HW2 4887   3.539   5.275   1.760  0.9381 -0.0026  0.0290
 1616SOL     OW 4888   3.941   1.323   1.345 -0.4184  0.0664 -0.1686
 1616SOL    HW1 4889   4.011   1.331   1.280 -0.8568  0.4548 -0.6035
 1616SOL    HW2 4890   3.978   1.359   1.425 -0.7595  2.1386 -0.8859
 1617SOL     OW 4891   3.799   4.451   1.900  0.1914  0.1759 -0.8058
 1617SOL    HW1 4892   3.879   4.400   1.887  0.3428  0.8345 -2.7751
 1617SOL    HW2 4893   3.826   4.542   1.891 -0.5674  0.4881 -0.1125
 1618SOL     OW 4894   3.808   1.040   1.008  0.1004 -0.1853 -0.0862
 1618SOL    HW1 4895   3.831   1.060   0.917  1.3187 -3.1923 -0.5480
 1618SOL    HW2 4896   3.721   1.001   1.002  0.4712 -1.0220 -0.0560
 1619SOL     OW 4897   3.732   2.273   1.497 -0.7860 -0.1352  0.3118
 1619SOL    HW1 4898   3.706   2.246   1.585  1.0296 -3.0422  0.0614
 1619SOL    HW2 4899   3.674   2.224   1.439  0.0762 -0.6333 -0.1391
 1620SOL     OW 4900   2.307   2.911   3.037  0.3401 -0.1172  0.5649
 1620SOL    HW1 4901   2.335   2.867   2.957 -1.8619  0.3428 -0.5351
 1620SOL    HW2 4902   2.260   2.843   3.086 -3.1687  0.8100 -1.1897
 1621SOL     OW 4903   4.229   1.846   0.689 -0.3483  0.1489 -0.1591
 1621SOL    HW1 4904   4.147   1.798   0.700 -1.3887  1.9205  0.1317
 1621SOL    HW2 4905   4.202   1.935   0.668  1.4448  1.3699  2.2793
 1622SOL     OW 4906   3.693   1.236   1.519 -0.8649  0.1753 -0.2829
 1622SOL    HW1 4907   3.737   1.214   1.601 -2.6209  0.5445  0.8205
 1622SOL    HW2 4908   3.708   1.160   1.463  0.9208  0.1981  0.1164
 1623SOL     OW 4909   3.918   4.766   1.567  0.3792 -0.1632  0.1634
 1623SOL    HW1 4910   4.009   4.791   1.581  0.3068  0.5491 -0.5540
 1623SOL    HW2 4911   3.921   4.674   1.541  0.9310 -0.0121 -0.3184
 1624SOL     OW 4912   4.342   2.117   1.094  0.0038 -0.2864 -0.0344
 1624SOL    HW1 4913   4.424   2.128   1.143  0.4370 -2.4679 -0.1782
 1624SOL    HW2 4914   4.292   2.055   1.146 -1.8466  1.4028  0.3211
 1625SOL     OW 4915   4.133   0.612   0.562  0.3339 -0.2943  0.2451
 1625SOL    HW1 4916   4.040   0.612   0.539  0.6692  0.9143 -1.3225
 1625SOL    HW2 4917   4.150   0.702   0.589  0.7984 -0.8168  1.8108
 1626SOL     OW 4918   4.114   0.342   0.032 -0.0109 -0.0356 -0.1658
 1626SOL    HW1 4919   4.196   0.382   0.003 -0.2296 -0.3095 -1.2144
 1626SOL    HW2 4920   4.117   0.347   0.128  0.5179  1.3556 -0.2329
 1627SOL     OW 4921   4.216   4.476   0.296  0.1039  0.1228  0.2032
 1627SOL    HW1 4922   4.171   4.559   0.311 -0.0378 -0.1132  1.1763
 1627SOL    HW2 4923   4.301   4.486   0.340  0.0661 -0.2620  0.3711
 1628SOL     OW 4924   3.896   1.113   0.766 -0.2779 -0.2425 -0.5183
 1628SOL    HW1 4925   3.902   1.018   0.752  3.9457 -0.4960  1.2227
 1628SOL    HW2 4926   3.961   1.150   0.706  0.8538  1.0476  1.3802
 1629SOL     OW 4927   4.007   5.177   1.458  0.2718 -0.7577 -0.4952
 1629SOL    HW1 4928   4.089   5.134   1.434  0.2797 -0.6159 -0.7244
 1629SOL    HW2 4929   4.026   5.271   1.453  0.3811 -0.7170  0.4432
 1630SOL     OW 4930   4.391   4.535   0.796  0.1616  0.0314 -0.1032
 1630SOL    HW1 4931   4.388   4.440   0.787  0.4596  0.0961 -1.0127
 1630SOL    HW2 4932   4.315   4.566   0.746 -0.5042  0.2278  1.0103
 1631SOL     OW 4933   4.337   5.237   1.728 -0.0887 -0.0859 -0.8703
 1631SOL    HW1 4934   4.413   5.294   1.739  0.1817 -0.6520  0.4496
 1631SOL    HW2 4935   4.276   5.289   1.675  0.7947  0.7773 -1.0804
 1632SOL     OW 4936   4.115   2.290   0.843 -0.0137 -0.4897 -0.1541
 1632SOL    HW1 4937   4.165   2.351   0.789 -2.9455 -0.0691 -2.6768
 1632SOL    HW2 4938   4.136   2.315   0.933  0.6927  2.7236 -1.0605
 1633SOL     OW 4939   4.251   1.344   0.612 -0.0885  0.6660 -0.2813
 1633SOL    HW1 4940   4.288   1.351   0.524  0.1407 -0.3400 -0.2692
 1633SOL    HW2 4941   4.163   1.310   0.599 -0.1980  0.8890 -0.1412
 1634SOL     OW 4942   4.463   5.300   1.371 -0.1020  0.3857  0.0584
 1634SOL    HW1 4943   4.505   5.234   1.425  1.0434  1.3235  0.3443
 1634SOL    HW2 4944   4.532   5.362   1.350 -0.4059 -0.0799 -2.7595
 1635SOL     OW 4945   3.985   1.463   0.970  0.0239 -0.6017 -0.1658
 1635SOL    HW1 4946   3.996   1.386   0.915 -0.8641 -1.1219  0.3526
 1635SOL    HW2 4947   4.028   1.440   1.052  0.0234 -0.4285 -0.1169
 1636SOL     OW 4948   4.112   5.273   1.945  0.3558  0.8064  0.6453
 1636SOL    HW1 4949   4.196   5.260   1.900 -0.2460 -0.6481 -0.1296
 1636SOL    HW2 4950   4.120   5.222   2.025  0.6169  1.6080  1.1403
 1637SOL     OW 4951   4.232   4.128   1.985  0.2892 -0.0616  0.1862
 1637SOL    HW1 4952   4.167   4.092   2.046  1.5453 -2.3554  0.2720
 1637SOL    HW2 4953   4.290   4.180   2.040 -0.0311 -0.0449  0.5148
 1638SOL     OW 4954   3.679   1.401   1.251 -0.6738 -0.5299 -0.5009
 1638SOL    HW1 4955   3.652   1.329   1.194 -2.6835 -0.9263  0.8734
 1638SOL    HW2 4956   3.752   1.366   1.301  0.3634 -0.5512 -1.9583
 1639SOL     OW 4957   3.923   4.502   1.509  0.4913  0.0959 -0.9121
 1639SOL    HW1 4958   3.994   4.486   1.448  1.1547  0.2287 -0.1913
 1639SOL    HW2 4959   3.895   4.415   1.537  2.6050  0.0238  1.3085
 1640SOL     OW 4960   3.809   1.084   1.270 -0.5046  0.2087 -0.6939
 1640SOL    HW1 4961   3.845   1.068   1.183 -0.1490 -0.0805 -0.4933
 1640SOL    HW2 4962   3.857   1.160   1.303  0.8272 -0.9240  0.0764
 1641SOL     OW 4963   4.213   4.674   0.657  0.1376 -0.0980  0.4877
 1641SOL    HW1 4964   4.120   4.682   0.678 -0.4196 -1.6535 -1.1391
 1641SOL    HW2 4965   4.238   4.760   0.624 -1.2551 -0.1940 -0.9056
 1642SOL     OW 4966   3.860   5.436   1.681  0.0107 -0.3308 -0.5429
 1642SOL    HW1 4967   3.940   5.421   1.631  0.2352 -0.7469 -0.0609
 1642SOL    HW2 4968   3.850   5.357   1.734 -0.0092  0.2724  0.3670
 1643SOL     OW 4969   4.102   0.959   1.127  0.1241 -0.0581 -0.2347
 1643SOL    HW1 4970   4.107   1.050   1.097 -0.3230  0.0439 -0.0069
 1643SOL    HW2 4971   4.159   0.956   1.204 -1.1050  0.4275  0.7175
 1644SOL     OW 4972   4.457   0.850   1.094 -0.0529 -0.3386  0.5062
 1644SOL    HW1 4973   4.458   0.900   1.175  0.5725  0.6573 -0.0850
 1644SOL    HW2 4974   4.542   0.805   1.093  0.3243  0.3559  0.0082
 1645SOL     OW 4975   4.094   2.302   0.450  0.2723  0.1169 -0.4830
 1645SOL    HW1 4976   4.045   2.374   0.489 -1.6604 -1.1414 -0.4101
 1645SOL    HW2 4977   4.161   2.280   0.515 -0.1230  0.8278  0.1803
 1646SOL     OW 4978   3.986   4.878   1.249  0.3234  0.3811 -0.3755
 1646SOL    HW1 4979   3.988   4.794   1.203  0.9841  0.1910 -0.0183
 1646SOL    HW2 4980   4.030   4.939   1.190  2.3694 -0.1515  0.5184
 1647SOL     OW 4981   4.029   5.044   1.751 -0.1504  0.2783 -0.4764
 1647SOL    HW1 4982   4.073   4.987   1.689 -0.2555 -0.6658  0.2965
 1647SOL    HW2 4983   4.039   5.132   1.714 -0.2752 -0.2584 -1.8534
 1648SOL     OW 4984   4.448   0.868   0.300  0.1467 -0.0578  0.6976
 1648SOL    HW1 4985   4.439   0.778   0.268  1.6259  0.0441 -0.1010
 1648SOL    HW2 4986   4.485   0.857   0.388  1.5437 -0.2433  0.1204
 1649SOL     OW 4987   3.881   2.002   1.715 -0.3048  0.3045  0.0567
 1649SOL    HW1 4988   3.794   2.031   1.688 -0.8858 -1.1534  0.2818
 1649SOL    HW2 4989   3.913   1.951   1.641  0.2175  0.5316  0.1217
 1650SOL     OW 4990   4.415   0.602   0.513 -0.1477  0.4944  0.6576
 1650SOL    HW1 4991   4.325   0.627   0.532  0.4814  1.3444  2.7786
 1650SOL    HW2 4992   4.415   0.581   0.420 -2.5552  0.3307  0.6391
 1651SOL     OW 4993   3.758   1.501   1.581  0.2239 -0.0271  0.8842
 1651SOL    HW1 4994   3.724   1.428   1.529 -0.1237 -0.0614  1.1602
 1651SOL    HW2 4995   3.708   1.499   1.662 -0.2305  0.9044  0.6408
 1652SOL     OW 4996   3.793   1.628   1.117  0.6527  0.0730 -0.3375
 1652SOL    HW1 4997   3.853   1.590   1.054  0.6517  0.2518 -0.4452
 1652SOL    HW2 4998   3.732   1.557   1.138  2.0922 -0.7670  1.3028
 1653SOL     OW 4999   3.923   1.801   1.927  0.4562 -0.0225 -0.2183
 1653SOL    HW1 5000   3.926   1.873   1.864 -0.4936  0.1857 -0.0527
 1653SOL    HW2 5001   3.829   1.790   1.946  0.7606  0.8336  2.1647
 1654SOL     OW 5002   3.948   4.721   0.672 -0.1461 -0.1991  0.0582
 1654SOL    HW1 5003   3.877   4.760   0.619 -1.2894 -2.4873 -0.2139
 1654SOL    HW2 5004   3.922   4.738   0.762 -1.3056 -1.3376 -0.0285
 1655SOL     OW 5005   4.252   1.599   1.396  0.3098  0.2457 -0.0325
 1655SOL    HW1 5006   4.313   1.571   1.327 -0.3596  0.1501 -0.5964
 1655SOL    HW2 5007   4.182   1.643   1.349  1.0924  2.5015  0.8041
 1656SOL     OW 5008   4.603   1.588   0.402 -0.1453 -0.2886  0.1425
 1656SOL    HW1 5009   4.654   1.513   0.431  0.1743 -0.0918  0.0995
 1656SOL    HW2 5010   4.610   1.586   0.306 -0.1646 -0.2261  0.1395
 1657SOL     OW 5011   3.852   1.319   1.884 -0.1746 -0.2933  0.0414
 1657SOL    HW1 5012   3.866   1.239   1.833 -1.2340 -0.9131  0.6727
 1657SOL    HW2 5013   3.930   1.372   1.868 -0.5222 -0.3747 -2.3465
 1658SOL     OW 5014   4.044   2.242   1.382  0.3659  0.2922  0.0786
 1658SOL    HW1 5015   4.041   2.269   1.474 -1.1941  0.0134  0.1428
 1658SOL    HW2 5016   3.988   2.164   1.379 -0.3306  0.8194 -1.2662
 1659SOL     OW 5017   2.454   3.467   3.024 -0.3978 -0.4863 -0.0780
 1659SOL    HW1 5018   2.388   3.412   3.065  0.1714 -1.4095 -0.3623
 1659SOL    HW2 5019   2.425   3.477   2.933  0.1403 -1.3884 -0.3607
 1660SOL     OW 5020   4.031   1.539   1.815 -0.0661 -0.4027 -0.0322
 1660SOL    HW1 5021   4.122   1.563   1.828  0.0498 -0.9982  0.2545
 1660SOL    HW2 5022   3.981   1.607   1.861  0.2854 -1.2275  1.6547
 1661SOL     OW 5023   3.862   1.455   0.662  0.0933 -0.3703 -0.1436
 1661SOL    HW1 5024   3.818   1.413   0.736  1.0360  0.6707  1.0423
 1661SOL    HW2 5025   3.790   1.481   0.603 -0.5443 -4.9158 -1.7823
 1662SOL     OW 5026   4.453   1.346   1.749  0.0355 -0.5968  0.0711
 1662SOL    HW1 5027   4.522   1.364   1.685  2.5436 -2.4282  2.0653
 1662SOL    HW2 5028   4.406   1.270   1.712 -0.2517 -0.0223 -0.7840
 1663SOL     OW 5029   4.118   5.055   1.016  0.1477  0.1670 -0.7136
 1663SOL    HW1 5030   4.194   5.073   0.961 -0.5688 -0.2590 -1.9020
 1663SOL    HW2 5031   4.087   5.141   1.044  2.0035  0.2861  1.1755
 1664SOL     OW 5032   4.217   1.031   1.387  0.0840  0.1652  0.4845
 1664SOL    HW1 5033   4.221   1.076   1.471  0.5561 -1.0921  1.1545
 1664SOL    HW2 5034   4.308   1.008   1.367 -0.1060 -0.1789 -0.0236
 1665SOL     OW 5035   3.762   0.730   0.316 -0.0624 -0.3702 -0.2156
 1665SOL    HW1 5036   3.704   0.737   0.240  0.6242 -0.2589 -0.7491
 1665SOL    HW2 5037   3.850   0.740   0.279  0.2042  1.6329  0.8286
 1666SOL     OW 5038   4.328   5.008   2.183  0.3657  0.2486 -0.1121
 1666SOL    HW1 5039   4.263   5.079   2.181  0.4501  0.3194 -0.4981
 1666SOL    HW2 5040   4.396   5.039   2.242  1.2649  1.2620 -1.6327
 1667SOL     OW 5041   3.619   4.932   2.806  0.3585 -0.2966  0.4743
 1667SOL    HW1 5042   3.639   5.025   2.818 -1.5987  0.9269 -3.7469
 1667SOL    HW2 5043   3.526   4.925   2.829 -0.3137 -0.4004 -1.9794
 1668SOL     OW 5044   3.506   4.873   2.406 -0.0136  0.4350  0.2908
 1668SOL    HW1 5045   3.527   4.962   2.378 -0.2212 -0.2836 -2.3612
 1668SOL    HW2 5046   3.586   4.823   2.391  0.0353  0.0855  1.5618
 1669SOL     OW 5047   4.288   5.162   2.479  0.1058 -0.7772 -0.1283
 1669SOL    HW1 5048   4.292   5.154   2.574  0.4493  1.6139  0.1163
 1669SOL    HW2 5049   4.380   5.162   2.452  0.0411 -0.3198 -0.3452
 1670SOL     OW 5050   3.829   5.868   2.704  0.5258 -0.1848  0.4243
 1670SOL    HW1 5051   3.889   5.803   2.739 -1.5017 -1.5246  1.6414
 1670SOL    HW2 5052   3.805   5.835   2.618 -1.4508 -1.8444  1.5198
 1671SOL     OW 5053   3.852   6.164   2.629 -0.5220 -0.2472 -0.1345
 1671SOL    HW1 5054   3.794   6.190   2.700 -1.2360 -0.2487 -0.7085
 1671SOL    HW2 5055   3.854   6.068   2.634  1.5885 -0.2031  1.5652
 1672SOL     OW 5056   3.885   1.877   2.362 -0.1738 -0.0165  0.0159
 1672SOL    HW1 5057   3.806   1.916   2.324  0.9256  2.9832  0.5762
 1672SOL    HW2 5058   3.875   1.889   2.456 -0.2835 -2.2397  0.3406
 1673SOL     OW 5059   4.013   5.066   2.650  0.1735 -0.0918  0.5551
 1673SOL    HW1 5060   4.004   5.000   2.719 -1.6934 -3.2683 -2.4170
 1673SOL    HW2 5061   3.949   5.041   2.584  1.7901  2.7282 -2.3840
 1674SOL     OW 5062   3.850   5.323   2.222 -0.2326 -0.3224  0.1688
 1674SOL    HW1 5063   3.813   5.381   2.155 -1.6883 -0.7694  0.5545
 1674SOL    HW2 5064   3.808   5.351   2.304  1.9687  0.6264  1.0599
 1675SOL     OW 5065   3.640   1.801   1.883  1.3066  0.5651  0.1527
 1675SOL    HW1 5066   3.649   1.831   1.792  1.3920  1.6946  0.5196
 1675SOL    HW2 5067   3.613   1.710   1.875 -1.8087  1.4274 -1.0827
 1676SOL     OW 5068   4.087   5.219   2.212  0.4459  0.2365 -0.0464
 1676SOL    HW1 5069   4.094   5.233   2.307  2.2227  0.2029 -0.1301
 1676SOL    HW2 5070   3.999   5.248   2.190 -0.4191 -0.8474  1.7893
 1677SOL     OW 5071   3.702   5.370   2.470  0.4767  0.0179 -0.0963
 1677SOL    HW1 5072   3.662   5.449   2.433  1.3668  0.5023 -0.0352
 1677SOL    HW2 5073   3.724   5.394   2.560  3.3017  0.6658 -0.8700
 1678SOL     OW 5074   4.692   4.735   1.835  0.3124 -0.8778 -0.1293
 1678SOL    HW1 5075   4.733   4.818   1.809  0.4000 -1.3342 -1.5269
 1678SOL    HW2 5076   4.600   4.757   1.851  0.5893 -0.2893  0.7645
 1679SOL     OW 5077   3.694   6.057   2.865 -0.0559 -0.0838 -0.0160
 1679SOL    HW1 5078   3.736   5.983   2.823 -0.2944 -0.5202  0.4958
 1679SOL    HW2 5079   3.753   6.080   2.938  0.6941  1.0843 -0.9528
 1680SOL     OW 5080   4.333   5.366   2.154  0.2847  0.0587  0.4345
 1680SOL    HW1 5081   4.255   5.322   2.187 -0.6397 -0.2670 -1.9539
 1680SOL    HW2 5082   4.311   5.459   2.157  0.2560  0.0404  0.8188
 1681SOL     OW 5083   3.777   4.953   2.572 -0.0848  0.2351 -0.3289
 1681SOL    HW1 5084   3.713   4.925   2.638  0.4448 -0.4656 -0.0986
 1681SOL    HW2 5085   3.773   4.886   2.504 -0.7122  1.0147 -1.0945
 1682SOL     OW 5086   4.080   4.851   2.164 -0.9902 -0.0018  0.0672
 1682SOL    HW1 5087   4.083   4.869   2.258 -0.1274  0.0482  0.0411
 1682SOL    HW2 5088   4.167   4.874   2.132 -1.4573  0.5691 -0.8609
 1683SOL     OW 5089   3.854   4.222   2.251  0.0239 -0.0230 -0.2529
 1683SOL    HW1 5090   3.874   4.309   2.286  0.8391 -0.6940  1.0355
 1683SOL    HW2 5091   3.778   4.193   2.301 -1.1424  0.4793 -1.6579
 1684SOL     OW 5092   3.661   4.497   2.136 -0.3141  0.3604  0.2129
 1684SOL    HW1 5093   3.710   4.579   2.146 -0.3155  0.2255  1.4723
 1684SOL    HW2 5094   3.690   4.463   2.051 -2.3640  2.9940 -1.7072
 1685SOL     OW 5095   3.929   5.361   2.716  0.5264  0.3311 -0.0567
 1685SOL    HW1 5096   3.929   5.272   2.753 -1.5389 -0.1428 -1.0813
 1685SOL    HW2 5097   3.973   5.352   2.632 -0.7651 -0.0023 -0.7134
 1686SOL     OW 5098   4.338   5.672   2.943 -0.4246  0.4103  0.1692
 1686SOL    HW1 5099   4.335   5.758   2.984  1.3470  0.4094  0.3815
 1686SOL    HW2 5100   4.401   5.683   2.871  1.0209 -1.0612  1.1432
 1687SOL     OW 5101   3.581   5.663   2.782  0.7438 -0.2839  0.0615
 1687SOL    HW1 5102   3.556   5.754   2.766  1.0204 -0.1951  0.1157
 1687SOL    HW2 5103   3.663   5.670   2.831  0.4594 -0.5619  0.5843
 1688SOL     OW 5104   3.747   5.742   2.487 -0.1986  0.2206 -0.2450
 1688SOL    HW1 5105   3.673   5.681   2.483 -1.4365  1.6870 -0.6214
 1688SOL    HW2 5106   3.822   5.691   2.456 -1.4271 -0.7673 -1.7305
 1689SOL     OW 5107   3.975   4.393   2.871 -0.2795 -0.0889  0.1020
 1689SOL    HW1 5108   4.020   4.405   2.955 -1.6165  0.7563  0.7384
 1689SOL    HW2 5109   3.902   4.455   2.874 -2.4274 -2.3974 -0.1873
 1690SOL     OW 5110   1.725   4.309   0.223 -0.5791  0.5763  0.4317
 1690SOL    HW1 5111   1.759   4.229   0.181  0.1047  0.1243  1.7842
 1690SOL    HW2 5112   1.802   4.363   0.238 -0.8472  0.8341  0.9007
 1691SOL     OW 5113   2.170   2.752   0.334  0.0432 -0.0158  0.2897
 1691SOL    HW1 5114   2.097   2.805   0.367 -0.4554 -0.5532  0.0740
 1691SOL    HW2 5115   2.217   2.810   0.274  0.3842  0.6551  1.1914
 1692SOL     OW 5116   3.765   4.279   2.550 -0.5027 -0.1480  0.3877
 1692SOL    HW1 5117   3.760   4.373   2.567 -2.2785 -0.3863  1.5038
 1692SOL    HW2 5118   3.705   4.264   2.477  0.1425 -0.3592 -0.1063
 1693SOL     OW 5119   4.300   5.068   3.006 -0.1882 -0.0528  0.0558
 1693SOL    HW1 5120   4.376   5.063   3.064  0.9005 -0.1500 -1.2988
 1693SOL    HW2 5121   4.260   4.981   3.012  0.0071 -0.1142  0.5214
 1694SOL     OW 5122   4.238   4.787   2.963 -0.3540 -0.0464 -0.4411
 1694SOL    HW1 5123   4.155   4.743   2.978 -1.6736  2.5038  0.3541
 1694SOL    HW2 5124   4.304   4.728   2.999 -1.7425 -2.3111 -1.4588
 1695SOL     OW 5125   3.985   1.652   2.158  0.2908 -0.0118  0.3543
 1695SOL    HW1 5126   3.944   1.704   2.228  1.8836  0.7082  0.7985
 1695SOL    HW2 5127   3.966   1.702   2.079 -0.8162 -0.4028  0.3435
 1696SOL     OW 5128   3.614   2.006   2.821 -0.0267  0.2557  0.3670
 1696SOL    HW1 5129   3.560   2.046   2.753 -2.5637  1.6288  2.9637
 1696SOL    HW2 5130   3.601   1.912   2.811 -1.7903  0.5065 -0.0001
 1697SOL     OW 5131   1.518   3.132   0.033 -0.0847  0.1776 -0.0633
 1697SOL    HW1 5132   1.596   3.093   0.073 -0.3059 -0.1691  0.0349
 1697SOL    HW2 5133   1.536   3.226   0.032  0.3819  0.0896 -0.1475
 1698SOL     OW 5134   4.525   5.105   2.360 -0.0467  0.0847  0.5340
 1698SOL    HW1 5135   4.558   5.193   2.379  0.8303 -0.6515  2.8266
 1698SOL    HW2 5136   4.602   5.048   2.372 -1.0843 -1.2069  1.3123
 1699SOL     OW 5137   4.396   4.826   2.006  0.3789 -0.6588  0.4287
 1699SOL    HW1 5138   4.407   4.877   1.926 -0.9041 -1.7364 -0.4658
 1699SOL    HW2 5139   4.386   4.892   2.075 -1.4728  0.3349 -0.7271
 1700SOL     OW 5140   3.761   4.576   2.572  0.3090  0.5089  0.0085
 1700SOL    HW1 5141   3.667   4.563   2.584  0.6017 -1.3037  0.8539
 1700SOL    HW2 5142   3.788   4.628   2.648  0.0913  0.4459  0.1282
 1701SOL     OW 5143   4.366   5.764   2.370  0.2025 -0.3642 -0.0160
 1701SOL    HW1 5144   4.335   5.843   2.325 -1.2442 -0.5070  0.6630
 1701SOL    HW2 5145   4.310   5.756   2.447  0.9582 -1.5293  0.4517
 1702SOL     OW 5146   3.586   5.917   2.353  0.5157  0.6816  0.3597
 1702SOL    HW1 5147   3.621   6.006   2.357  1.0621  0.6085 -1.4769
 1702SOL    HW2 5148   3.639   5.867   2.416  1.4277  1.2935  0.1005
 1703SOL     OW 5149   2.332   2.588   0.482  0.1448 -0.3950  0.0667
 1703SOL    HW1 5150   2.264   2.638   0.437  0.5410  0.4338  0.3561
 1703SOL    HW2 5151   2.351   2.639   0.561  0.2133 -1.2726  0.6312
 1704SOL     OW 5152   3.825   4.762   1.825 -0.3663  0.3000 -0.1144
 1704SOL    HW1 5153   3.826   4.751   1.730 -0.1119  1.4329 -0.2490
 1704SOL    HW2 5154   3.880   4.838   1.842  0.2422 -0.3639  1.0172
 1705SOL     OW 5155   3.910   5.030   2.018 -0.2591  0.1747  0.9842
 1705SOL    HW1 5156   3.950   5.056   1.935 -1.3300  0.6850  0.6045
 1705SOL    HW2 5157   3.982   4.994   2.069  0.2541 -1.0746 -0.5327
 1706SOL     OW 5158   3.403   1.758   2.509 -0.0758 -0.0357 -0.7069
 1706SOL    HW1 5159   3.353   1.744   2.428 -0.2177  1.0627 -0.8291
 1706SOL    HW2 5160   3.398   1.853   2.523  0.0842 -0.2019  0.5082
 1707SOL     OW 5161   3.766   4.773   2.385 -0.7231  0.4955  0.4961
 1707SOL    HW1 5162   3.796   4.695   2.432 -0.7630  0.2128  0.0627
 1707SOL    HW2 5163   3.805   4.764   2.298 -1.3931  0.5445  0.1884
 1708SOL     OW 5164   3.735   4.523   2.899 -0.0992 -0.4978 -0.8962
 1708SOL    HW1 5165   3.678   4.600   2.900  0.9686  0.4798  2.7270
 1708SOL    HW2 5166   3.683   4.455   2.943  0.8995  0.0268  1.2597
 1709SOL     OW 5167   3.974   5.606   2.416  0.2445  0.2124  0.5280
 1709SOL    HW1 5168   3.970   5.636   2.325  1.2207  1.0015  0.7249
 1709SOL    HW2 5169   4.041   5.537   2.414 -0.3466 -0.3736  0.5058
 1710SOL     OW 5170   3.874   2.213   0.984 -0.6584  0.8143  0.2566
 1710SOL    HW1 5171   3.942   2.200   1.050  0.3856 -2.3000 -1.2383
 1710SOL    HW2 5172   3.919   2.251   0.909 -1.1792  1.4265  0.2514
 1711SOL     OW 5173   3.655   2.129   0.273 -0.5315 -0.2138 -0.4228
 1711SOL    HW1 5174   3.695   2.216   0.279  0.7259 -0.8028  0.1409
 1711SOL    HW2 5175   3.647   2.101   0.364 -0.9467 -0.6794 -0.6029
 1712SOL     OW 5176   4.537   2.514   1.184 -0.3012 -0.3271 -0.2482
 1712SOL    HW1 5177   4.580   2.592   1.219 -0.5007 -0.1655 -0.3649
 1712SOL    HW2 5178   4.455   2.507   1.233  1.6092 -2.9657  3.0079
 1713SOL     OW 5179   3.978   3.040   1.138  0.2197  0.3302  0.0268
 1713SOL    HW1 5180   3.916   2.999   1.078 -0.0893  0.2097  0.4249
 1713SOL    HW2 5181   3.999   3.125   1.098  2.9066 -1.2080 -2.1862
 1714SOL     OW 5182   3.974   2.136   1.943  0.1815  0.0745  0.0561
 1714SOL    HW1 5183   4.065   2.164   1.933  0.4078 -0.8147 -0.5365
 1714SOL    HW2 5184   3.950   2.102   1.857 -0.8973  0.8000  0.0484
 1715SOL     OW 5185   4.399   3.602   0.644  0.2827  0.0245 -0.3971
 1715SOL    HW1 5186   4.460   3.676   0.646  1.6535 -1.0778 -0.2043
 1715SOL    HW2 5187   4.448   3.531   0.603 -0.8086 -0.9607 -0.0476
 1716SOL     OW 5188   4.030   3.688   0.259  0.1863  0.5046  0.0619
 1716SOL    HW1 5189   4.001   3.722   0.343 -0.4209 -0.4743  0.2734
 1716SOL    HW2 5190   4.124   3.673   0.271  0.4615  2.0468 -0.0413
 1717SOL     OW 5191   3.994   2.928   0.750 -0.0668 -0.2060 -0.0222
 1717SOL    HW1 5192   4.062   2.892   0.806 -0.2494 -0.1071  0.2667
 1717SOL    HW2 5193   3.918   2.872   0.764  0.1659 -0.7648 -0.9019
 1718SOL     OW 5194   3.292   2.433   0.661 -0.6730  0.0423  0.3508
 1718SOL    HW1 5195   3.338   2.416   0.744  0.6413  0.0309 -0.3592
 1718SOL    HW2 5196   3.317   2.522   0.637 -3.0682  1.0556  1.1860
 1719SOL     OW 5197   3.927   2.822   1.609 -0.1846  0.2479  0.2000
 1719SOL    HW1 5198   3.893   2.733   1.610  0.1984  0.0599 -1.1784
 1719SOL    HW2 5199   3.926   2.848   1.517  1.4005  0.9925  0.3449
 1720SOL     OW 5200   3.860   2.910   1.360 -0.1575 -0.7084 -0.4091
 1720SOL    HW1 5201   3.899   2.978   1.305 -0.5082  1.7624  2.1499
 1720SOL    HW2 5202   3.793   2.869   1.304  0.9649  0.1271 -2.4556
 1721SOL     OW 5203   3.894   2.158   2.208  0.2753  0.0989  0.2396
 1721SOL    HW1 5204   3.917   2.181   2.118 -0.3132 -0.0898  0.0383
 1721SOL    HW2 5205   3.800   2.141   2.205  0.1667  0.5362  0.9838
 1722SOL     OW 5206   3.665   2.326   0.644 -0.4933 -0.3079 -0.4872
 1722SOL    HW1 5207   3.609   2.297   0.715 -1.3889  0.2509 -0.9426
 1722SOL    HW2 5208   3.650   2.262   0.574 -0.6613 -0.0949 -0.6495
 1723SOL     OW 5209   3.798   3.668   1.601 -0.3230 -0.4952 -0.8078
 1723SOL    HW1 5210   3.738   3.708   1.539 -1.2190  0.6799  0.7564
 1723SOL    HW2 5211   3.800   3.575   1.576 -1.8993 -0.3439 -1.5970
 1724SOL     OW 5212   2.516   4.018   2.843 -0.5469  0.0006 -0.3488
 1724SOL    HW1 5213   2.550   4.008   2.754 -0.4387 -0.5582 -0.2519
 1724SOL    HW2 5214   2.422   4.036   2.831 -0.2783  1.3476 -0.6128
 1725SOL     OW 5215   4.456   2.042   0.841  0.0989 -0.3951 -0.1298
 1725SOL    HW1 5216   4.531   2.039   0.900 -0.9294 -0.6782  1.2461
 1725SOL    HW2 5217   4.384   2.075   0.897 -0.6723  0.4022 -1.5316
 1726SOL     OW 5218   4.143   3.675   0.751  0.4181 -0.0850 -0.1079
 1726SOL    HW1 5219   4.224   3.680   0.701  0.5465  0.5869  0.1531
 1726SOL    HW2 5220   4.156   3.737   0.823 -1.2717  1.9064 -1.4130
 1727SOL     OW 5221   4.188   3.104   1.580 -0.3690 -0.3459  0.3199
 1727SOL    HW1 5222   4.261   3.157   1.612 -2.0495  1.4006  1.5307
 1727SOL    HW2 5223   4.154   3.153   1.506 -2.5837  0.9897  2.0768
 1728SOL     OW 5224   4.209   1.959   1.256  0.2537 -0.3417  0.3662
 1728SOL    HW1 5225   4.120   1.974   1.287  0.1489 -1.2827  0.5462
 1728SOL    HW2 5226   4.229   1.868   1.280  0.0645 -1.2494 -2.4936
 1729SOL     OW 5227   3.832   3.360   1.087 -0.1238 -0.2858 -0.4426
 1729SOL    HW1 5228   3.895   3.413   1.136  0.1144 -1.9734  1.1936
 1729SOL    HW2 5229   3.885   3.309   1.026 -0.3420  1.1611 -1.9261
 1730SOL     OW 5230   4.051   2.507   0.634 -0.3966  0.5183 -0.0902
 1730SOL    HW1 5231   4.136   2.514   0.679 -0.7108 -2.0122  1.0692
 1730SOL    HW2 5232   3.986   2.510   0.704 -0.8962 -3.6031 -0.1340
 1731SOL     OW 5233   2.228   3.936   2.789  0.2241  0.3972  0.1189
 1731SOL    HW1 5234   2.140   3.901   2.786  0.1294  0.7256 -1.8428
 1731SOL    HW2 5235   2.249   3.960   2.699  1.8897  1.3923  0.7043
 1732SOL     OW 5236   4.389   2.351   0.211  0.1717 -0.1182  0.2464
 1732SOL    HW1 5237   4.484   2.364   0.202  0.1746 -0.1127  0.2918
 1732SOL    HW2 5238   4.376   2.257   0.201  0.1537 -0.0879 -0.0373
 1733SOL     OW 5239   4.094   2.756   0.972 -0.6067 -0.2439  0.2924
 1733SOL    HW1 5240   4.184   2.730   0.951 -0.4198 -0.3241  1.1198
 1733SOL    HW2 5241   4.094   2.764   1.068 -0.8031  2.2463  0.1458
 1734SOL     OW 5242   4.327   2.629   1.646  0.2694  0.1166 -0.6477
 1734SOL    HW1 5243   4.413   2.616   1.685 -0.7396 -1.7873  1.1900
 1734SOL    HW2 5244   4.303   2.719   1.670  0.6141 -0.2630  1.3415
 1735SOL     OW 5245   0.440   2.353   0.459 -0.3202  0.4063 -0.4503
 1735SOL    HW1 5246   0.487   2.275   0.429 -2.1154 -0.9954  0.1700
 1735SOL    HW2 5247   0.493   2.388   0.531  0.0108 -0.8698 -0.0549
 1736SOL     OW 5248   4.286   2.548   1.329 -0.2420 -0.2850 -0.8268
 1736SOL    HW1 5249   4.307   2.612   1.397  1.5305 -0.6589 -0.9786
 1736SOL    HW2 5250   4.205   2.580   1.290  0.2739  1.5333 -0.4988
 1737SOL     OW 5251   3.978   3.572   1.210  0.0819  0.0273 -0.9672
 1737SOL    HW1 5252   3.966   3.667   1.213  0.6523  0.0975 -0.6113
 1737SOL    HW2 5253   4.065   3.560   1.172 -0.5658 -0.4098 -2.3696
 1738SOL     OW 5254   4.247   2.815   0.599 -0.2013 -0.1291 -0.9084
 1738SOL    HW1 5255   4.303   2.859   0.534  0.4017 -1.8588 -1.6139
 1738SOL    HW2 5256   4.158   2.830   0.567 -0.1443  1.8158 -0.3092
 1739SOL     OW 5257   4.530   2.562   0.908  0.1507 -0.1297  0.1798
 1739SOL    HW1 5258   4.536   2.535   1.000  2.0414  1.6041  0.6224
 1739SOL    HW2 5259   4.598   2.511   0.864  0.1124 -0.0087 -0.0200
 1740SOL     OW 5260   4.235   3.587   1.184  0.0756 -0.3275 -0.2732
 1740SOL    HW1 5261   4.325   3.580   1.150  0.4855 -4.2502  1.0571
 1740SOL    HW2 5262   4.247   3.602   1.278 -0.6351 -0.6307 -0.1309
 1741SOL     OW 5263   4.070   2.590   2.129 -0.1930 -0.6982  0.4526
 1741SOL    HW1 5264   4.127   2.586   2.053 -0.6460 -0.8985  0.1171
 1741SOL    HW2 5265   4.116   2.540   2.197  0.5855  0.1531  0.5712
 1742SOL     OW 5266   4.087   1.932   2.152 -0.6596  0.0939 -0.0558
 1742SOL    HW1 5267   4.018   1.954   2.215 -2.3915 -1.3627 -1.3130
 1742SOL    HW2 5268   4.070   1.988   2.077  0.0779  0.3198 -0.0623
 1743SOL     OW 5269   3.913   2.614   1.281 -0.1970 -0.1313  0.1995
 1743SOL    HW1 5270   3.967   2.693   1.276  0.2350 -0.4542 -0.3781
 1743SOL    HW2 5271   3.867   2.611   1.197 -0.1326 -0.5456  0.1749
 1744SOL     OW 5272   4.164   2.312   1.112 -0.3148 -0.3137 -0.5691
 1744SOL    HW1 5273   4.126   2.294   1.198  0.1507  0.0020 -0.2919
 1744SOL    HW2 5274   4.231   2.244   1.101  0.5361  0.4274 -0.0971
 1745SOL     OW 5275   3.629   3.281   1.239 -0.3157  0.0358 -0.1077
 1745SOL    HW1 5276   3.577   3.357   1.267 -0.2791  0.2804 -0.7006
 1745SOL    HW2 5277   3.705   3.318   1.196  0.7534 -0.3048  1.3927
 1746SOL     OW 5278   4.052   2.105   0.262  0.2741 -0.2242 -0.4127
 1746SOL    HW1 5279   3.999   2.165   0.210 -0.7728  0.0711  0.9254
 1746SOL    HW2 5280   4.104   2.162   0.319  2.0259 -0.5153 -1.6576
 1747SOL     OW 5281   3.964   2.771   2.338 -0.2378 -0.2118  0.4664
 1747SOL    HW1 5282   4.008   2.741   2.418  0.3134  0.2241  0.3339
 1747SOL    HW2 5283   3.982   2.702   2.274 -1.4639 -1.0151  0.9578
 1748SOL     OW 5284   3.876   2.608   0.837 -0.0581  0.6346  0.2452
 1748SOL    HW1 5285   3.950   2.620   0.896 -0.2809  0.7322  0.5025
 1748SOL    HW2 5286   3.815   2.551   0.885  0.6128 -0.9005 -0.6219
 1749SOL     OW 5287   4.314   2.474   0.730 -0.0521  0.2882 -0.5904
 1749SOL    HW1 5288   4.364   2.500   0.807  1.3462  0.1530 -1.4248
 1749SOL    HW2 5289   4.373   2.487   0.656 -0.9560 -0.6682 -1.5363
 1750SOL     OW 5290   3.960   3.445   0.766 -0.1523  0.0339 -0.0228
 1750SOL    HW1 5291   3.991   3.355   0.769 -0.6130 -0.1167  0.3005
 1750SOL    HW2 5292   4.039   3.498   0.780  0.1421 -0.3088 -0.3540
 1751SOL     OW 5293   3.735   2.441   1.037 -0.5285  0.1932 -0.1862
 1751SOL    HW1 5294   3.795   2.368   1.026 -1.6513 -0.7297 -0.3884
 1751SOL    HW2 5295   3.669   2.409   1.099 -1.6667  0.6104 -1.1452
 1752SOL     OW 5296   3.831   2.686   1.992 -0.7157 -0.4754 -0.4164
 1752SOL    HW1 5297   3.825   2.624   1.919  0.1564 -0.4629 -0.5016
 1752SOL    HW2 5298   3.895   2.648   2.052 -0.4116  0.1809 -0.3147
 1753SOL     OW 5299   2.512   4.294   3.033 -0.4176  1.0328 -0.2222
 1753SOL    HW1 5300   2.497   4.235   3.107  0.9944  1.6642  0.6058
 1753SOL    HW2 5301   2.428   4.295   2.986 -0.6972 -1.1069  0.0874
 1754SOL     OW 5302   4.108   3.502   1.518  0.0358 -0.1688  0.1785
 1754SOL    HW1 5303   4.027   3.451   1.511 -0.9181  1.2702  0.3535
 1754SOL    HW2 5304   4.171   3.455   1.463 -0.4041 -2.2308  1.3142
 1755SOL     OW 5305   2.237   4.228   2.922 -0.5970 -0.1137 -0.0496
 1755SOL    HW1 5306   2.229   4.306   2.866  0.2504 -0.5017 -0.7353
 1755SOL    HW2 5307   2.227   4.154   2.862 -0.0094 -0.5389  0.3619
 1756SOL     OW 5308   4.028   3.176   1.356 -0.5574  0.3572 -0.4060
 1756SOL    HW1 5309   4.016   3.148   1.265 -0.2245 -1.2711  0.0156
 1756SOL    HW2 5310   3.939   3.184   1.390 -0.7397 -2.5082  0.0638
 1757SOL     OW 5311   3.726   2.958   0.907  0.2140  0.0105 -0.0102
 1757SOL    HW1 5312   3.655   2.999   0.956  0.7368 -0.4403  1.1676
 1757SOL    HW2 5313   3.734   2.871   0.945  1.9792  0.3584  0.5289
 1758SOL     OW 5314   3.951   3.557   1.938 -0.0503  0.1962 -0.7898
 1758SOL    HW1 5315   3.944   3.493   1.867 -2.1590 -1.8095  1.0423
 1758SOL    HW2 5316   3.861   3.570   1.968  0.4912  2.8745 -0.0046
 1759SOL     OW 5317   4.508   2.317   0.564  0.4730 -0.1043 -0.6460
 1759SOL    HW1 5318   4.438   2.348   0.506 -0.1336  1.1981  0.7112
 1759SOL    HW2 5319   4.589   2.348   0.523 -0.0748  2.9391  0.3252
 1760SOL     OW 5320   4.273   3.351   1.374  0.4497 -0.1092 -0.0788
 1760SOL    HW1 5321   4.313   3.398   1.301 -0.3989  0.5018 -0.1580
 1760SOL    HW2 5322   4.212   3.290   1.332 -0.7188  0.8779  0.1265
 1761SOL     OW 5323   4.493   3.410   0.453  0.0654 -0.1024 -0.3724
 1761SOL    HW1 5324   4.456   3.333   0.410 -1.2171  1.3482 -2.0333
 1761SOL    HW2 5325   4.587   3.398   0.446 -0.0556 -2.0768  0.5386
 1762SOL     OW 5326   3.958   3.071   1.736  0.5826 -0.5300  0.3534
 1762SOL    HW1 5327   3.936   2.981   1.711 -0.5789 -0.4460  0.9698
 1762SOL    HW2 5328   4.037   3.091   1.687  0.1762 -1.4700 -0.7368
 1763SOL     OW 5329   4.503   4.144   1.562  0.5884  0.9579 -0.0474
 1763SOL    HW1 5330   4.583   4.100   1.590  0.8431  0.1740 -1.8444
 1763SOL    HW2 5331   4.442   4.131   1.633  1.3855 -0.3334  0.4462
 1764SOL     OW 5332   4.107   3.109   2.080 -0.5719  0.3774 -0.1326
 1764SOL    HW1 5333   4.057   3.061   2.147 -0.2269  0.3485  0.1077
 1764SOL    HW2 5334   4.128   3.193   2.123 -0.0301  0.2117 -0.0697
 1765SOL     OW 5335   4.034   3.181   0.692  0.4325  0.3116  0.2203
 1765SOL    HW1 5336   4.059   3.089   0.703  1.6222  0.4404 -1.0461
 1765SOL    HW2 5337   4.071   3.206   0.608  1.7025  2.4495  1.3107
 1766SOL     OW 5338   4.484   3.272   1.575 -0.1798 -0.9888 -0.1797
 1766SOL    HW1 5339   4.548   3.223   1.523  0.9121  0.9918 -0.8519
 1766SOL    HW2 5340   4.415   3.294   1.514 -0.1588 -0.8307 -0.1479
 1767SOL     OW 5341   4.337   2.486   0.439  0.5199 -0.7512  0.4126
 1767SOL    HW1 5342   4.270   2.551   0.460  1.6078  1.1825 -1.6296
 1767SOL    HW2 5343   4.316   2.458   0.350  0.5965 -2.6037  0.9381
 1768SOL     OW 5344   4.254   2.543   1.928 -0.5200 -0.3092  0.0476
 1768SOL    HW1 5345   4.230   2.591   1.849 -3.5670 -0.0274  1.0412
 1768SOL    HW2 5346   4.246   2.451   1.904 -2.3200 -0.2241  0.2063
 1769SOL     OW 5347   4.200   3.118   0.469 -0.2647 -0.0524  0.4612
 1769SOL    HW1 5348   4.258   3.143   0.397  0.3980 -2.4963  0.0309
 1769SOL    HW2 5349   4.133   3.063   0.428 -2.0325  1.4286  1.2086
 1770SOL     OW 5350   3.725   2.943   2.038  0.6735 -0.0092 -0.1990
 1770SOL    HW1 5351   3.719   2.957   2.132  0.7792  0.0684 -0.2031
 1770SOL    HW2 5352   3.772   2.860   2.029  0.8776  0.1047 -0.1862
 1771SOL     OW 5353   4.006   2.407   3.032 -0.4005 -0.0391  0.4176
 1771SOL    HW1 5354   4.030   2.360   2.952  0.8363  0.7627  0.2859
 1771SOL    HW2 5355   3.972   2.339   3.090  2.7574 -1.4486  0.8215
 1772SOL     OW 5356   3.595   2.805   2.727  0.5883  0.2930 -0.1974
 1772SOL    HW1 5357   3.658   2.777   2.660 -1.5113 -3.5200 -0.8337
 1772SOL    HW2 5358   3.618   2.755   2.805 -1.3258 -0.9194 -0.3456
 1773SOL     OW 5359   4.558   2.935   2.639 -0.3058  0.7179  0.1368
 1773SOL    HW1 5360   4.623   2.885   2.688 -0.2598  2.2556  1.7276
 1773SOL    HW2 5361   4.529   3.003   2.699 -1.0093  2.0892 -1.6541
 1774SOL     OW 5362   1.674   1.338   0.010  0.1170  0.5414  0.5539
 1774SOL    HW1 5363   1.734   1.398  -0.034 -0.6736  0.8209 -0.1654
 1774SOL    HW2 5364   1.659   1.268  -0.053 -2.6046  1.9400 -0.5186
 1775SOL     OW 5365   3.988   3.473   2.614 -0.5443  0.0462  0.0419
 1775SOL    HW1 5366   3.972   3.444   2.703 -1.7411 -0.6719 -0.3783
 1775SOL    HW2 5367   3.929   3.547   2.601 -0.7925 -0.2100 -0.3288
 1776SOL     OW 5368   3.863   3.408   2.308  0.0237  0.3525 -0.2828
 1776SOL    HW1 5369   3.878   3.456   2.389  1.4229  1.6992 -1.2933
 1776SOL    HW2 5370   3.947   3.409   2.263 -0.3386 -1.6638 -1.1127
 1777SOL     OW 5371   4.155   3.037   2.775  0.7208  0.0732  0.4728
 1777SOL    HW1 5372   4.200   2.954   2.791  1.2432  0.1843 -0.3264
 1777SOL    HW2 5373   4.062   3.015   2.776  0.8050 -0.2706  1.5825
 1778SOL     OW 5374   3.844   2.475   2.298 -0.7833 -0.4084 -0.6019
 1778SOL    HW1 5375   3.923   2.480   2.245 -1.6490  1.0931 -1.8478
 1778SOL    HW2 5376   3.787   2.415   2.250  0.0769 -2.6868  1.0598
 1779SOL     OW 5377   4.268   3.507   1.735 -0.2353 -0.1463  0.0331
 1779SOL    HW1 5378   4.202   3.510   1.665 -0.0954 -1.2902 -0.1707
 1779SOL    HW2 5379   4.243   3.433   1.789 -0.0898  0.4688  0.9672
 1780SOL     OW 5380   4.281   2.535   2.563  0.1674  0.0267  0.2175
 1780SOL    HW1 5381   4.282   2.495   2.651 -1.1474  0.0752  0.2694
 1780SOL    HW2 5382   4.358   2.592   2.562 -0.2306  0.6325  1.6398
 1781SOL     OW 5383   3.921   2.637   2.775 -0.4125  0.1444 -0.2189
 1781SOL    HW1 5384   3.947   2.565   2.833  0.9329  1.2071  0.5569
 1781SOL    HW2 5385   3.837   2.667   2.810  1.2232  2.0180  2.5201
 1782SOL     OW 5386   4.351   2.076   2.429 -0.2916 -0.7226 -0.1835
 1782SOL    HW1 5387   4.258   2.101   2.434  0.2364  1.5741 -0.7005
 1782SOL    HW2 5388   4.393   2.149   2.384  1.9721 -1.1364  1.1029
 1783SOL     OW 5389   1.864   4.076   0.132  0.0608 -0.0131 -0.2941
 1783SOL    HW1 5390   1.911   4.041   0.207 -0.8392  2.6613  1.6333
 1783SOL    HW2 5391   1.933   4.105   0.072  0.8361  0.0726  0.6097
 1784SOL     OW 5392   1.777   1.470   0.334 -0.0209  0.8369 -0.0408
 1784SOL    HW1 5393   1.726   1.389   0.330  1.6687 -0.3258  0.8684
 1784SOL    HW2 5394   1.718   1.534   0.374 -0.8397 -0.3973  0.7800
 1785SOL     OW 5395   4.088   2.705   2.580 -0.3709  0.0012  0.5781
 1785SOL    HW1 5396   4.148   2.633   2.561 -0.8234 -0.5104  1.0266
 1785SOL    HW2 5397   4.038   2.674   2.656  0.2708  1.2991  1.5637
 1786SOL     OW 5398   3.732   2.473   2.552 -0.5882  0.0530  0.0850
 1786SOL    HW1 5399   3.808   2.437   2.597  0.1663  0.9141 -0.4676
 1786SOL    HW2 5400   3.753   2.466   2.459 -1.3884 -0.1299 -0.0865
 1787SOL     OW 5401   4.240   1.649   2.283 -0.1544 -0.3359  0.2721
 1787SOL    HW1 5402   4.151   1.651   2.250 -0.3685  0.0359  0.8614
 1787SOL    HW2 5403   4.266   1.741   2.289  0.5013 -0.4515 -0.4975
 1788SOL     OW 5404   4.335   6.135   2.707  0.1157  0.4165 -0.3812
 1788SOL    HW1 5405   4.255   6.114   2.659 -0.1664 -0.3672  0.3921
 1788SOL    HW2 5406   4.306   6.144   2.798  0.6522  1.7826 -0.3329
 1789SOL     OW 5407   4.332   3.338   2.619  0.2396 -0.2508 -0.9571
 1789SOL    HW1 5408   4.328   3.416   2.564 -1.3476  0.7194  0.4316
 1789SOL    HW2 5409   4.267   3.278   2.582 -0.3213  0.1124 -0.5692
 1790SOL     OW 5410   4.156   3.342   2.202  0.0085 -0.1156 -0.2003
 1790SOL    HW1 5411   4.175   3.416   2.144  0.4551 -0.5586 -0.6259
 1790SOL    HW2 5412   4.208   3.359   2.280  0.2503 -0.0779 -0.3706
 1791SOL     OW 5413   2.279   0.141   0.133  0.3444 -0.2398  0.1263
 1791SOL    HW1 5414   2.254   0.230   0.107  0.2492 -0.2329  0.2408
 1791SOL    HW2 5415   2.375   0.141   0.129  0.3049 -0.6418 -1.5630
 1792SOL     OW 5416   4.283   6.209   2.997  0.3230  0.2980 -0.1968
 1792SOL    HW1 5417   4.309   6.269   2.927  0.0264  1.0549  0.3264
 1792SOL    HW2 5418   4.324   6.245   3.076  1.5762 -1.1707 -0.1469
 1793SOL     OW 5419   4.359   2.790   2.849  0.2713 -0.3509 -0.1810
 1793SOL    HW1 5420   4.449   2.804   2.877  0.5426 -0.4291 -0.9951
 1793SOL    HW2 5421   4.312   2.770   2.930  0.8271  0.4377  0.3549
 1794SOL     OW 5422   4.145   2.262   2.854  1.5699  0.9276 -0.3869
 1794SOL    HW1 5423   4.209   2.193   2.874 -0.7791 -1.2201  0.1962
 1794SOL    HW2 5424   4.087   2.222   2.789 -1.8421  0.9829  2.3718
 1795SOL     OW 5425   3.734   3.167   2.293 -0.4814 -0.0721  0.2486
 1795SOL    HW1 5426   3.778   3.248   2.268 -0.7218 -0.4919 -1.7545
 1795SOL    HW2 5427   3.690   3.187   2.375  0.7279  1.3481  0.5771
 1796SOL     OW 5428   1.483   1.523   0.087  0.0381  0.2038 -0.3421
 1796SOL    HW1 5429   1.533   1.447   0.057  2.3426  1.3343  0.4463
 1796SOL    HW2 5430   1.392   1.491   0.092  0.9873 -2.6677  0.5542
 1797SOL     OW 5431   4.097   2.187   2.401 -0.2605 -0.3948  0.0198
 1797SOL    HW1 5432   4.133   2.272   2.373  0.0911 -0.4251  0.3815
 1797SOL    HW2 5433   4.010   2.184   2.359  0.0109 -0.1741 -0.5819
 1798SOL     OW 5434   4.221   2.427   2.314 -0.3061  0.0684  0.3130
 1798SOL    HW1 5435   4.289   2.395   2.255 -0.5993  1.1412 -0.6332
 1798SOL    HW2 5436   4.268   2.449   2.395  0.4043  0.3940 -0.1807
 1799SOL     OW 5437   3.568   3.056   3.101  0.3919  0.2804  0.4359
 1799SOL    HW1 5438   3.641   2.994   3.097 -0.1031 -0.2927 -0.0361
 1799SOL    HW2 5439   3.503   3.012   3.156  0.8264  1.2726  1.8083
 1800SOL     OW 5440   4.021   2.066   2.658  0.1509 -0.4414 -0.8310
 1800SOL    HW1 5441   4.036   2.087   2.566 -1.9029  0.6670 -0.9649
 1800SOL    HW2 5442   4.027   1.971   2.663  0.7633 -0.4755 -2.0028
 1801SOL     OW 5443   4.567   3.807   2.307 -0.0718  0.8250  0.0446
 1801SOL    HW1 5444   4.594   3.860   2.382 -1.6125  2.8627 -0.7438
 1801SOL    HW2 5445   4.631   3.827   2.239  1.0949 -0.7208  0.6255
 1802SOL     OW 5446   4.141   3.277   1.864 -0.2447 -0.3514  0.4855
 1802SOL    HW1 5447   4.068   3.329   1.830 -0.4311 -1.0153 -0.1661
 1802SOL    HW2 5448   4.100   3.207   1.914 -0.1338 -1.4776 -0.9486
 1803SOL     OW 5449   2.019   4.413   0.338  0.2470 -0.2185 -0.2317
 1803SOL    HW1 5450   2.089   4.474   0.314  1.5411 -1.1580  0.9717
 1803SOL    HW2 5451   2.064   4.343   0.385 -1.5207 -0.8459  0.6113
 1804SOL     OW 5452   3.761   2.497   1.773  0.4234 -0.2341 -0.3346
 1804SOL    HW1 5453   3.783   2.536   1.689  2.5512  0.6809  0.5737
 1804SOL    HW2 5454   3.814   2.418   1.778  1.7752  0.6830  0.8557
 1805SOL     OW 5455   3.508   2.377   1.873  0.0163 -1.1118  0.1009
 1805SOL    HW1 5456   3.554   2.300   1.839 -0.2424 -2.0131  1.7163
 1805SOL    HW2 5457   3.576   2.445   1.877  0.6485 -1.7367  0.2089
 1806SOL     OW 5458   4.164   3.158   2.499 -0.6684  0.1848 -0.0954
 1806SOL    HW1 5459   4.125   3.136   2.583 -0.4463 -1.2169 -0.3241
 1806SOL    HW2 5460   4.114   3.106   2.436  0.9418 -0.9403 -0.4985
 1807SOL     OW 5461   3.860   2.277   2.725 -0.3895 -0.1473 -0.0739
 1807SOL    HW1 5462   3.872   2.203   2.666 -1.0627 -0.1153 -0.2535
 1807SOL    HW2 5463   3.844   2.238   2.811  0.3166 -0.1951  0.0474
 1808SOL     OW 5464   3.970   3.050   2.307  0.0351 -0.2799 -0.1132
 1808SOL    HW1 5465   3.944   2.959   2.298  0.2536 -0.5125  1.4492
 1808SOL    HW2 5466   3.891   3.100   2.287 -0.7984 -0.8899  1.5021
 1809SOL     OW 5467   3.721   3.543   0.910  0.1521 -0.4290  0.4698
 1809SOL    HW1 5468   3.778   3.554   0.834 -1.1484 -1.9464 -0.7914
 1809SOL    HW2 5469   3.759   3.469   0.958 -1.1175 -2.0369 -0.8475
 1810SOL     OW 5470   3.426   3.590   0.856  0.1552 -0.3330  0.0711
 1810SOL    HW1 5471   3.386   3.612   0.939 -1.2467 -1.3216 -0.3100
 1810SOL    HW2 5472   3.514   3.560   0.879 -0.6318 -1.7961  1.3488
 1811SOL     OW 5473   3.899   3.855   1.252  0.4489 -0.0550 -0.1883
 1811SOL    HW1 5474   3.811   3.817   1.262 -0.0562  0.4341 -2.1997
 1811SOL    HW2 5475   3.915   3.900   1.334 -1.6204  0.6626 -0.1127
 1812SOL     OW 5476   3.809   3.998   0.596 -0.5300 -0.3482 -0.0231
 1812SOL    HW1 5477   3.726   3.952   0.579 -2.1869  1.9726  1.2414
 1812SOL    HW2 5478   3.792   4.088   0.571  1.1350  0.5041  1.6602
 1813SOL     OW 5479   4.125   3.772   1.875  0.4972  0.4519  0.8337
 1813SOL    HW1 5480   4.183   3.771   1.951 -0.6652 -1.1965  1.7870
 1813SOL    HW2 5481   4.083   3.686   1.877 -2.0807  1.6042  0.3289
 1814SOL     OW 5482   3.770   4.403   0.960 -0.6871 -0.6636 -0.2166
 1814SOL    HW1 5483   3.768   4.463   0.886 -0.5722  0.0872  0.3807
 1814SOL    HW2 5484   3.738   4.320   0.925 -2.6853  0.2249 -0.6120
 1815SOL     OW 5485   2.217   6.310   2.993 -0.0769 -0.3903 -0.5768
 1815SOL    HW1 5486   2.126   6.282   3.006 -0.9517  2.0014 -1.1878
 1815SOL    HW2 5487   2.233   6.372   3.064  0.2595  0.9839 -1.8116
 1816SOL     OW 5488   4.284   3.847   0.950 -0.9731  0.1798 -0.2766
 1816SOL    HW1 5489   4.254   3.867   1.039  3.2815 -1.3921  1.7877
 1816SOL    HW2 5490   4.291   3.932   0.907 -3.0183  0.9962  0.8923
 1817SOL     OW 5491   3.627   3.735   1.410  0.0035  0.3390 -0.5368
 1817SOL    HW1 5492   3.593   3.810   1.360 -0.6760  0.4692  0.1040
 1817SOL    HW2 5493   3.593   3.658   1.363  0.6499  0.4207 -1.1591
 1818SOL     OW 5494   4.597   3.775   0.630  0.1951 -0.4174  0.0494
 1818SOL    HW1 5495   4.672   3.737   0.584  0.4144 -0.3835  0.3725
 1818SOL    HW2 5496   4.619   3.766   0.723  0.2470  0.4856  0.1356
 1819SOL     OW 5497   3.661   4.077   1.479 -0.1701 -0.5763  0.4695
 1819SOL    HW1 5498   3.746   4.036   1.467 -0.0345 -0.7102  1.7240
 1819SOL    HW2 5499   3.609   4.049   1.403  0.7560 -0.8559 -0.0715
 1820SOL     OW 5500   4.203   3.903   1.215  0.6364 -0.1866  0.7994
 1820SOL    HW1 5501   4.114   3.869   1.226  0.4554  0.6801  2.2687
 1820SOL    HW2 5502   4.257   3.848   1.271  1.3859 -1.8314 -1.3900
 1821SOL     OW 5503   4.275   4.125   0.856 -0.3381  0.5036 -0.0534
 1821SOL    HW1 5504   4.261   4.193   0.790  1.3129  0.0166 -0.9598
 1821SOL    HW2 5505   4.324   4.170   0.925 -1.1770  0.7556  0.3957
 1822SOL     OW 5506   3.886   3.887   1.966 -0.2265  0.0659 -0.4369
 1822SOL    HW1 5507   3.961   3.873   1.908 -0.2262  3.9561 -1.6882
 1822SOL    HW2 5508   3.817   3.919   1.907 -0.8159  2.4270  1.3936
 1823SOL     OW 5509   3.582   3.725   1.083 -0.4203 -0.7334 -0.3229
 1823SOL    HW1 5510   3.639   3.670   1.028  0.1904 -0.0333 -0.4047
 1823SOL    HW2 5511   3.496   3.682   1.079 -0.0904 -1.3668 -0.8357
 1824SOL     OW 5512   4.006   3.777   0.507 -0.0854  0.6867 -0.0978
 1824SOL    HW1 5513   3.937   3.835   0.539 -0.7655 -0.4740  0.6154
 1824SOL    HW2 5514   4.043   3.738   0.586  0.6414  0.4662 -0.5406
 1825SOL     OW 5515   3.959   4.085   0.826  0.2595  0.5947 -0.1694
 1825SOL    HW1 5516   3.921   4.060   0.742 -0.6130  0.5515  0.2291
 1825SOL    HW2 5517   4.053   4.087   0.810  0.1058  0.5320 -1.1316
 1826SOL     OW 5518   3.998   4.282   0.997  0.1863  0.2217  0.2067
 1826SOL    HW1 5519   3.989   4.212   0.933  0.7247  0.3640 -0.0299
 1826SOL    HW2 5520   3.916   4.331   0.990 -0.3835 -0.6350  0.6913
 1827SOL     OW 5521   3.612   4.501   1.720 -0.7430 -0.1741 -0.8420
 1827SOL    HW1 5522   3.647   4.440   1.656  0.1757 -1.5878  0.9180
 1827SOL    HW2 5523   3.678   4.503   1.790 -1.7862  1.1554  0.1607
 1828SOL     OW 5524   0.500   4.031   0.647  0.4562  0.3542 -0.0771
 1828SOL    HW1 5525   0.504   3.940   0.618 -0.5321  0.3481 -0.2209
 1828SOL    HW2 5526   0.519   4.082   0.569 -2.5587  0.3501 -0.9586
 1829SOL     OW 5527   4.330   0.134   0.037 -0.1343 -0.4464 -0.0515
 1829SOL    HW1 5528   4.289   0.131   0.123 -1.9764  0.7568 -0.8191
 1829SOL    HW2 5529   4.417   0.096   0.050 -0.8623 -1.5715  2.0289
 1830SOL     OW 5530   3.772   3.505   0.564  0.5810 -0.0667 -0.0449
 1830SOL    HW1 5531   3.707   3.446   0.602  0.8227 -0.0274  0.4387
 1830SOL    HW2 5532   3.853   3.485   0.610  1.0187 -0.4076 -0.9380
 1831SOL     OW 5533   5.776   5.985   2.969  0.6877 -0.2628 -0.3249
 1831SOL    HW1 5534   5.820   5.905   2.939  0.8525  0.1812 -1.3006
 1831SOL    HW2 5535   5.822   6.056   2.925  0.1325  0.3364  0.0417
 1832SOL     OW 5536   4.186   3.984   0.541  0.0980  0.1757 -0.3507
 1832SOL    HW1 5537   4.147   4.062   0.501 -1.0002  0.1354  0.5904
 1832SOL    HW2 5538   4.136   3.911   0.505  1.1681 -0.1199 -1.2813
 1833SOL     OW 5539   4.063   4.174   1.513 -0.2677 -0.3215 -0.0191
 1833SOL    HW1 5540   4.085   4.200   1.424  2.3193  0.0829  0.6521
 1833SOL    HW2 5541   4.148   4.156   1.554 -1.0636  2.2973  3.2249
 1834SOL     OW 5542   1.590   1.906   0.321  0.0523  0.0358 -0.4245
 1834SOL    HW1 5543   1.532   1.864   0.257 -0.1153  0.4135 -0.5183
 1834SOL    HW2 5544   1.564   1.998   0.321 -0.6587 -0.1337  0.9365
 1835SOL     OW 5545   3.556   4.186   3.006 -0.0347 -0.0185  0.1343
 1835SOL    HW1 5546   3.514   4.252   3.061 -0.5716  1.2229 -1.6483
 1835SOL    HW2 5547   3.523   4.205   2.918 -0.5946 -3.0173 -0.3870
 1836SOL     OW 5548   3.624   4.155   2.339  0.3344  0.3694 -0.2881
 1836SOL    HW1 5549   3.567   4.084   2.369  0.8253 -0.2337 -0.7505
 1836SOL    HW2 5550   3.566   4.213   2.290 -0.0620  0.2642  0.0481
 1837SOL     OW 5551   3.497   4.539   2.524 -0.3143 -0.7122  0.2994
 1837SOL    HW1 5552   3.454   4.455   2.540 -0.1922 -1.0152 -0.8360
 1837SOL    HW2 5553   3.446   4.577   2.452 -0.4474  0.2521  0.8942
 1838SOL     OW 5554   4.460   3.991   1.899 -0.1881 -0.3592  0.2210
 1838SOL    HW1 5555   4.377   4.001   1.945 -0.3789 -1.2393  0.1070
 1838SOL    HW2 5556   4.453   3.905   1.857 -0.1120  0.4795 -1.6074
 1839SOL     OW 5557   4.316   3.982   2.532 -0.0153 -0.5344  0.1267
 1839SOL    HW1 5558   4.233   3.948   2.497  0.7530 -0.6385 -1.7065
 1839SOL    HW2 5559   4.344   3.916   2.596 -1.2936 -0.5386  0.7058
 1840SOL     OW 5560   4.308   3.908   2.236  0.6112 -0.3513 -0.2564
 1840SOL    HW1 5561   4.301   3.915   2.331  1.6985 -1.1527 -0.0931
 1840SOL    HW2 5562   4.380   3.846   2.222  0.5403 -0.1601 -1.6032
 1841SOL     OW 5563   3.982   3.877   2.751  0.1564 -0.6296 -0.5107
 1841SOL    HW1 5564   4.003   3.970   2.753  2.0217 -1.0098 -0.0855
 1841SOL    HW2 5565   3.916   3.865   2.819 -1.5238  0.6403 -1.8178
 1842SOL     OW 5566   3.968   3.682   2.201  0.7900  0.3091  0.3374
 1842SOL    HW1 5567   4.012   3.765   2.183  1.4497 -0.1303 -0.1035
 1842SOL    HW2 5568   3.997   3.624   2.131 -0.5487  0.0244 -0.0152
 1843SOL     OW 5569   1.722   1.667  -0.002  0.6086  0.1557  0.1846
 1843SOL    HW1 5570   1.658   1.632   0.060 -0.0164 -1.6276 -1.3718
 1843SOL    HW2 5571   1.688   1.754  -0.024 -1.2310 -0.6592 -0.4514
 1844SOL     OW 5572   3.939   4.158   2.721 -0.0810  0.7092  0.7731
 1844SOL    HW1 5573   3.863   4.196   2.677 -0.7332  0.8031  1.9335
 1844SOL    HW2 5574   3.976   4.229   2.772 -0.3276  0.2198  1.6618
 1845SOL     OW 5575   3.694   3.729   2.839 -0.1720  0.2311  0.2754
 1845SOL    HW1 5576   3.730   3.718   2.928  2.1961 -2.3844 -0.8459
 1845SOL    HW2 5577   3.609   3.685   2.843 -0.8835  1.6483  1.6326
 1846SOL     OW 5578   1.918   1.876   0.110 -0.4506  0.1048  0.7263
 1846SOL    HW1 5579   1.952   1.902   0.025 -2.4185  1.1811  0.2069
 1846SOL    HW2 5580   1.871   1.794   0.094  2.1297 -1.6723  1.5422
 1847SOL     OW 5581   4.474   4.364   2.004 -0.7474 -0.2860 -0.3337
 1847SOL    HW1 5582   4.503   4.451   2.030 -0.0526 -0.0985 -1.6422
 1847SOL    HW2 5583   4.448   4.321   2.086  0.0698  0.7122  0.4739
 1848SOL     OW 5584   3.816   4.075   2.946  0.1764 -0.3467 -0.0190
 1848SOL    HW1 5585   3.742   4.126   2.978  0.8089  0.2013  0.6128
 1848SOL    HW2 5586   3.854   4.129   2.877  0.8889  0.0981  0.6968
 1849SOL     OW 5587   4.006   4.279   1.827  0.0200  0.6425 -0.1908
 1849SOL    HW1 5588   4.076   4.229   1.869  0.0503  1.1346  0.3392
 1849SOL    HW2 5589   4.043   4.305   1.743 -0.1934 -0.7097 -0.7403
 1850SOL     OW 5590   3.700   3.888   1.778  0.1711 -0.1903 -0.0397
 1850SOL    HW1 5591   3.701   3.946   1.702 -0.3877  0.8943  0.7385
 1850SOL    HW2 5592   3.726   3.803   1.744  0.9908  0.4979 -1.2422
 1851SOL     OW 5593   3.979   3.992   2.202 -0.0585  0.1232 -0.5694
 1851SOL    HW1 5594   3.943   4.079   2.222 -2.9187 -0.7204 -1.5417
 1851SOL    HW2 5595   3.940   3.969   2.118  2.4608 -1.2141 -1.4635
 1852NaJ    NaJ 5596   1.606   0.987   0.991  0.2379 -0.2945  0.2916
 1853NaJ    NaJ 5597   1.507   4.623   1.589 -0.2697  0.5350  0.0988
 1854NaJ    NaJ 5598   1.484   4.330   0.864 -0.2804 -0.0363  0.3811
 1855NaJ    NaJ 5599   3.868   4.977   1.423  0.3128 -0.0530  0.4000
 1856NaJ    NaJ 5600   4.146   1.920   0.151  0.5013  0.0488  0.0103
 1857ClJ    ClJ 5601   4.333   0.580   0.221  0.0332  0.3441 -0.1696
 1858ClJ    ClJ 5602   4.969   3.045   1.645  0.2537 -0.0879 -0.2275
 1859ClJ    ClJ 5603   4.854   3.854   3.030 -0.4641 -0.0652  0.5229
 1860ClJ    ClJ 5604   2.264   3.994   2.482 -0.0227  0.3526 -0.0491
 1861ClJ    ClJ 5605   3.555   2.071   2.249  0.1921  0.3690 -0.1053
   4.33090   4.33090   3.06241   0.00000   0.00000   0.00000   0.00000   2.16545   2.16545
