ligand in water
 5605
    1LIG      C    1   3.392   3.591   1.562 -0.2043 -0.1253 -0.3836
    1LIG     C1    2   3.310   3.462   1.571 -0.1850 -0.1196 -0.0937
    1LIG      O    3   3.174   3.495   1.598 -0.0010  0.0709  0.6079
    1LIG     C2    4   3.080   3.404   1.638 -0.3084  0.1010 -0.0339
    1LIG      N    5   3.118   3.275   1.641 -0.5717  0.0254  0.1245
    1LIG     C3    6   3.031   3.188   1.694 -0.1390 -0.1992  0.4654
    1LIG     C4    7   2.900   3.222   1.728 -0.3043 -0.2112 -0.1460
    1LIG     C5    8   2.862   3.357   1.724  0.2485 -0.0364  0.3550
    1LIG     N1    9   2.732   3.387   1.761 -0.0142 -0.6043 -0.0921
    1LIG     C6   10   2.952   3.450   1.671 -0.2950  0.2133 -0.1382
    1LIG     C7   11   2.927   3.591   1.662 -0.5795  0.1707 -0.0272
    1LIG     N2   12   2.917   3.705   1.652 -0.0650  0.2008 -0.2002
    1LIG     N3   13   3.085   3.061   1.722  0.8405  0.0488 -0.2456
    1LIG     C8   14   3.022   2.942   1.752 -0.0220  0.5650  0.0150
    1LIG     O1   15   2.902   2.927   1.763  0.0319 -0.3038 -0.5197
    1LIG     C9   16   3.110   2.818   1.760 -0.6142  0.1517  0.2138
    1LIG    C10   17   3.202   2.811   1.640 -0.2615 -0.4863  0.5109
    1LIG    C11   18   3.338   2.842   1.650 -0.2547 -0.3459  0.0428
    1LIG     CL   19   3.411   2.861   1.808 -0.2314 -0.0378 -0.0034
    1LIG    C12   20   3.420   2.820   1.539  0.1009 -0.2854  0.2901
    1LIG    C13   21   3.365   2.775   1.418 -0.2974 -0.1434  0.4165
    1LIG    C14   22   3.226   2.770   1.405 -0.2843  0.1811  0.1236
    1LIG    C15   23   3.143   2.780   1.517 -0.1179  0.2918  0.2375
    1LIG      H   24   3.381   3.647   1.656 -0.3820 -1.1322  0.2067
    1LIG     H1   25   3.500   3.576   1.545  0.5924  3.8381  0.0259
    1LIG     H2   26   3.354   3.650   1.478  0.8868  0.4461 -0.5022
    1LIG     H3   27   3.320   3.398   1.482  1.9606 -0.2591  0.1837
    1LIG     H4   28   3.352   3.398   1.649 -0.7238  1.4335  1.5174
    1LIG     H5   29   2.832   3.156   1.781  1.1593 -1.1098  0.6945
    1LIG     H6   30   2.699   3.479   1.736  0.2557 -1.0063 -2.0688
    1LIG     H7   31   2.664   3.312   1.757  1.8412 -2.3610 -0.9703
    1LIG     H8   32   3.187   3.059   1.722  0.8511  0.5386  0.1014
    1LIG     H9   33   3.166   2.824   1.855 -0.8993  0.0104  0.3943
    1LIG    H10   34   3.038   2.736   1.755 -2.0573  1.3173  1.1075
    1LIG    H11   35   3.526   2.839   1.549  0.0439  0.7792 -0.9210
    1LIG    H12   36   3.434   2.760   1.336  0.7346 -2.2477  1.5823
    1LIG    H13   37   3.189   2.746   1.306  1.6925 -1.6687 -0.2341
    1LIG    H14   38   3.036   2.762   1.509  0.1446 -0.4557 -3.2531
    1LIG    EP1   39   3.493   2.882   1.983 -0.2055  0.3046 -0.0548
    1LIG    DCL   40   3.590   2.858   1.553 -0.0733  0.5351  0.2060
    1LIG    HV6   41   2.678   3.315   1.809 -2.4388 -0.3224 -2.1960
    1LIG    HV7   42   2.704   3.484   1.761 -1.0058 -0.8620 -1.2742
    1LIG    HV8   43   3.185   3.062   1.706  1.0395  1.3787  0.8794
    1LIG   HV11   44   3.384   2.881   1.740  0.3107 -0.5965 -0.1343
    1LIG   DEP1   45   3.779   2.901   1.569 -0.2670  1.4470  0.1126
    2SOL     OW   46   0.389   4.467   0.199  0.0521  0.3086  0.4576
    2SOL    HW1   47   0.344   4.549   0.216 -1.2803 -0.3227  0.1283
    2SOL    HW2   48   0.428   4.442   0.283  0.1366  1.0765  0.6490
    3SOL     OW   49   4.544   4.631   0.967  0.1659  0.1728  0.0682
    3SOL    HW1   50   4.631   4.617   1.005 -0.0416  0.7433  0.7764
    3SOL    HW2   51   4.484   4.620   1.041 -0.3821 -0.3721 -0.4505
    4SOL     OW   52   4.378   0.467   0.627  0.1107 -0.2092  0.4469
    4SOL    HW1   53   4.307   0.435   0.572 -0.2717  0.3660  0.6001
    4SOL    HW2   54   4.424   0.531   0.572  0.2167 -0.2266  0.5147
    5SOL     OW   55   4.861   1.417   1.838 -0.0183 -0.1896  0.1666
    5SOL    HW1   56   4.951   1.448   1.835 -0.2346  0.4251 -0.3081
    5SOL    HW2   57   4.820   1.468   1.907  0.3059 -1.3755  1.2728
    6SOL     OW   58   1.221   1.394   0.678  0.2736  0.1059  0.6069
    6SOL    HW1   59   1.149   1.388   0.741  0.9288 -1.7812  1.2581
    6SOL    HW2   60   1.300   1.386   0.732  0.9548  1.1464 -0.1958
    7SOL     OW   61   1.160   0.693   0.701  0.0342 -0.0543  0.1779
    7SOL    HW1   62   1.248   0.704   0.737  0.6706 -0.7585 -1.1285
    7SOL    HW2   63   1.137   0.780   0.668  0.3160  0.0828  0.3382
    8SOL     OW   64   2.098   0.501   0.264  0.1691 -0.2227  0.0698
    8SOL    HW1   65   2.180   0.484   0.217  0.3517  0.4190  0.1562
    8SOL    HW2   66   2.042   0.427   0.240  0.6459 -0.4813 -0.2751
    9SOL     OW   67   4.688   1.001   1.289 -0.0758 -0.0211  0.2046
    9SOL    HW1   68   4.616   0.947   1.256 -0.4003 -0.9684  2.2804
    9SOL    HW2   69   4.695   1.074   1.227 -1.1251 -1.2529 -1.4324
   10SOL     OW   70   4.874   4.832   1.675  0.1058 -0.1314  0.0966
   10SOL    HW1   71   4.855   4.864   1.764 -0.2142  1.1172 -0.4012
   10SOL    HW2   72   4.894   4.911   1.625  0.1192 -0.8083 -0.9955
   11SOL     OW   73   0.547   0.944   0.759  0.0010  0.2358 -0.2585
   11SOL    HW1   74   0.475   0.987   0.805  0.3926  1.3650 -0.6605
   11SOL    HW2   75   0.545   0.980   0.671  0.3283 -0.6177 -0.6274
   12SOL     OW   76   4.647   5.533   2.058 -0.0017  0.2480  0.7931
   12SOL    HW1   77   4.689   5.524   1.972  0.4228 -3.7790  1.2505
   12SOL    HW2   78   4.716   5.565   2.115 -0.0445  2.0735 -0.0904
   13SOL     OW   79   4.764   1.182   1.070  0.6108 -0.6432  0.6636
   13SOL    HW1   80   4.728   1.113   1.015  0.2713 -1.6522  2.1182
   13SOL    HW2   81   4.858   1.177   1.056  0.4470  0.1303 -0.9664
   14SOL     OW   82   1.236   1.507   1.338 -1.0059 -0.0086 -0.3401
   14SOL    HW1   83   1.234   1.551   1.423  0.7244 -1.0977  0.3254
   14SOL    HW2   84   1.223   1.577   1.274  1.4558  1.5095  0.6822
   15SOL     OW   85   4.671   4.888   1.399 -0.2844  0.3090  0.3654
   15SOL    HW1   86   4.625   4.969   1.375 -0.7157  0.3119  1.1705
   15SOL    HW2   87   4.621   4.819   1.356 -0.4008  0.4024  0.3480
   16SOL     OW   88   1.720   0.352   0.404  0.0866 -0.4590 -0.0408
   16SOL    HW1   89   1.630   0.358   0.435 -0.8630  0.1387 -2.6564
   16SOL    HW2   90   1.714   0.310   0.318  2.2785 -0.1731 -0.4082
   17SOL     OW   91   4.044   2.027   0.307 -0.1414  0.1848 -0.2994
   17SOL    HW1   92   4.112   2.083   0.345 -0.0229 -0.1071 -0.0790
   17SOL    HW2   93   4.092   1.956   0.266 -0.2827  0.3587 -0.7653
   18SOL     OW   94   5.235   1.297   1.461 -0.0306 -0.1836 -0.1990
   18SOL    HW1   95   5.202   1.265   1.544 -0.6296  0.4168 -0.2029
   18SOL    HW2   96   5.256   1.389   1.477 -3.8288  1.1557 -1.6492
   19SOL     OW   97   4.418   1.924   0.387 -0.0359 -1.2086  0.2421
   19SOL    HW1   98   4.505   1.887   0.374  1.4134  1.1749  2.3504
   19SOL    HW2   99   4.401   1.975   0.308 -0.1658 -2.6587 -0.7285
   20SOL     OW  100   4.490   1.047   0.683  0.2322  0.6026 -0.1520
   20SOL    HW1  101   4.417   1.001   0.643  0.6133 -1.1327  1.0462
   20SOL    HW2  102   4.472   1.140   0.667 -0.3880  0.0869 -2.9289
   21SOL     OW  103   5.193   1.856   1.577 -0.2434 -0.2058  0.1236
   21SOL    HW1  104   5.118   1.899   1.537 -1.0541 -2.0545 -0.4171
   21SOL    HW2  105   5.249   1.928   1.607 -1.9347  1.2022  0.0140
   22SOL     OW  106   0.406   0.879   0.201 -0.1373  0.0992 -0.1097
   22SOL    HW1  107   0.452   0.797   0.220 -0.3736  0.2249  1.1022
   22SOL    HW2  108   0.317   0.852   0.181  0.4920 -0.1794 -2.8625
   23SOL     OW  109   1.900   4.484   1.541  0.5319 -0.7285 -0.0533
   23SOL    HW1  110   1.994   4.474   1.553  0.3104 -1.1908  1.5242
   23SOL    HW2  111   1.865   4.395   1.545 -0.2862 -0.3797  2.7801
   24SOL     OW  112   4.300   0.715   0.782 -0.0245  0.3272 -0.0471
   24SOL    HW1  113   4.282   0.630   0.743  1.7139  0.1213 -0.4723
   24SOL    HW2  114   4.243   0.719   0.859 -0.9402 -0.7267 -0.6490
   25SOL     OW  115   4.484   3.882   2.878  0.1398  0.0516  0.3689
   25SOL    HW1  116   4.504   3.795   2.912  0.3521  0.3991  1.1539
   25SOL    HW2  117   4.425   3.866   2.804  2.7996 -0.9967 -1.6986
   26SOL     OW  118   4.321   1.218   0.426 -0.5558 -0.6348 -0.5125
   26SOL    HW1  119   4.333   1.125   0.403 -1.8936 -0.7134 -0.9699
   26SOL    HW2  120   4.320   1.219   0.521  2.8580 -0.6044 -0.3537
   27SOL     OW  121   1.855   0.619   0.367 -0.2473  0.0891 -0.1692
   27SOL    HW1  122   1.946   0.595   0.349 -0.5217  0.0105 -1.5761
   27SOL    HW2  123   1.806   0.537   0.357 -0.7050  0.4817 -1.2882
   28SOL     OW  124   1.357   1.030   0.363 -0.3929 -0.1969  0.2009
   28SOL    HW1  125   1.362   1.045   0.268 -0.4080 -1.7543 -0.0720
   28SOL    HW2  126   1.352   1.118   0.401 -1.4840  0.4276 -1.2965
   29SOL     OW  127   4.557   5.082   1.782  0.2227 -0.2559 -0.4245
   29SOL    HW1  128   4.606   5.113   1.705  1.1380 -1.8218 -0.5222
   29SOL    HW2  129   4.578   5.145   1.851  1.8572 -0.4994 -0.6608
   30SOL     OW  130   4.561   1.392   0.748  0.0643 -0.4173 -0.1859
   30SOL    HW1  131   4.469   1.367   0.756 -0.3200  0.8013 -0.6645
   30SOL    HW2  132   4.591   1.406   0.838 -0.1118 -1.1402 -0.0083
   31SOL     OW  133   1.352   1.262   1.448 -0.0907 -0.2109 -0.1358
   31SOL    HW1  134   1.301   1.328   1.400 -1.0859  0.1648  1.3494
   31SOL    HW2  135   1.386   1.309   1.524  0.2014 -1.1317  0.3174
   32SOL     OW  136   1.119   4.605   0.955 -0.3672 -0.2993  0.2404
   32SOL    HW1  137   1.144   4.688   0.914 -1.5352 -0.4375 -0.8135
   32SOL    HW2  138   1.174   4.600   1.033  1.4789  0.2748 -0.9517
   33SOL     OW  139   4.370   0.896   1.198  0.0358 -0.2748  0.6208
   33SOL    HW1  140   4.359   0.986   1.229 -2.7874 -0.5751  0.7576
   33SOL    HW2  141   4.425   0.854   1.265 -2.4219  0.1939  3.1507
   34SOL     OW  142   1.348   1.172   0.089 -0.5120 -0.2427 -0.3364
   34SOL    HW1  143   1.279   1.109   0.067 -0.4143 -0.2659 -0.5805
   34SOL    HW2  144   1.429   1.123   0.079 -0.3078  0.3998 -2.3562
   35SOL     OW  145   5.233   1.900   1.929 -0.5387  0.4855  0.2292
   35SOL    HW1  146   5.186   1.904   1.846 -0.2753  0.8830  0.0974
   35SOL    HW2  147   5.320   1.868   1.907 -0.7429 -0.2555  0.4747
   36SOL     OW  148   4.605   4.637   1.282 -0.1776 -0.1825  0.3675
   36SOL    HW1  149   4.668   4.620   1.212  0.6872  1.7673  0.6048
   36SOL    HW2  150   4.635   4.581   1.354  2.5374  1.9703  1.1226
   37SOL     OW  151   1.454   1.682   0.769 -0.1228 -0.5833 -0.1915
   37SOL    HW1  152   1.421   1.608   0.820  0.1492 -1.7292 -1.6311
   37SOL    HW2  153   1.549   1.680   0.782 -0.0900 -0.6547 -0.4317
   38SOL     OW  154   1.867   1.473   0.536  0.3180 -0.2622  0.1519
   38SOL    HW1  155   1.924   1.548   0.551  1.6889 -1.1066 -0.6198
   38SOL    HW2  156   1.896   1.408   0.600 -0.1489 -0.5085  0.1187
   39SOL     OW  157   0.377   0.401   0.510 -0.2736  0.0012  0.5621
   39SOL    HW1  158   0.388   0.496   0.520 -0.5957  0.1651 -0.4964
   39SOL    HW2  159   0.295   0.381   0.554 -0.8569  0.4339 -0.2975
   40SOL     OW  160   1.271   4.938   0.995 -0.2344  0.0396 -0.1104
   40SOL    HW1  161   1.255   4.883   1.071 -1.3621  0.3183 -0.1244
   40SOL    HW2  162   1.277   4.877   0.922 -2.8471 -0.0557 -0.3440
   41SOL     OW  163   2.155   1.242   0.085 -0.0917  0.5753  0.4265
   41SOL    HW1  164   2.132   1.334   0.095 -0.1063  0.6830 -0.5163
   41SOL    HW2  165   2.079   1.195   0.119  0.0802  0.9022  1.2808
   42SOL     OW  166   5.275   4.933   1.572 -0.0097 -0.1596 -0.6106
   42SOL    HW1  167   5.199   4.952   1.515  0.3493  0.4942 -0.8784
   42SOL    HW2  168   5.346   4.983   1.534  0.2486  0.2645  0.4100
   43SOL     OW  169   1.899   4.997   1.491  0.3019  0.3690  0.3042
   43SOL    HW1  170   1.974   5.056   1.484 -1.1620  2.4016  0.7864
   43SOL    HW2  171   1.834   5.046   1.541 -0.9385 -1.7755  0.9561
   44SOL     OW  172   5.036   5.279   1.538 -0.3389 -0.0447 -0.1971
   44SOL    HW1  173   4.992   5.196   1.519  1.7853 -1.2598 -0.1297
   44SOL    HW2  174   5.066   5.310   1.453  1.6742 -1.0424  0.1142
   45SOL     OW  175   1.331   1.058   1.260  0.1969  0.1567  0.1207
   45SOL    HW1  176   1.372   1.107   1.331 -1.0347  0.1125  0.9009
   45SOL    HW2  177   1.241   1.090   1.259  0.1590  0.0484 -1.3392
   46SOL     OW  178   0.815   1.221   0.103  0.1402  0.5139  0.1435
   46SOL    HW1  179   0.894   1.205   0.154  0.7228  0.6040 -0.7013
   46SOL    HW2  180   0.758   1.147   0.125  0.4531  0.4479  0.7641
   47SOL     OW  181   4.241   0.942   0.623 -0.2642 -0.6432  0.7065
   47SOL    HW1  182   4.172   0.988   0.670 -1.4874 -1.3885 -0.2818
   47SOL    HW2  183   4.226   0.849   0.642 -1.2639 -1.0484 -1.6185
   48SOL     OW  184   4.387   1.911   1.693 -0.0886 -0.1960  0.5963
   48SOL    HW1  185   4.293   1.912   1.710 -0.2932  0.8677 -0.4554
   48SOL    HW2  186   4.421   1.989   1.738  0.2753 -0.5058  0.8668
   49SOL     OW  187   0.891   0.496   0.081 -0.4434 -0.6341 -0.0181
   49SOL    HW1  188   0.940   0.425   0.123  0.8151 -0.3400 -0.9453
   49SOL    HW2  189   0.804   0.458   0.064 -0.4976 -1.2466  1.4237
   50SOL     OW  190   1.796   4.983   1.923  0.1783  0.0370  0.0566
   50SOL    HW1  191   1.745   4.950   1.849  0.5372 -0.0870 -0.1378
   50SOL    HW2  192   1.799   4.909   1.985 -2.0141  0.8085  1.2340
   51SOL     OW  193   1.023   1.150   0.266  0.2448  0.4094  0.2761
   51SOL    HW1  194   1.095   1.194   0.311  1.3512 -0.1553 -0.8823
   51SOL    HW2  195   1.065   1.081   0.215 -1.1017  0.1783 -0.5744
   52SOL     OW  196   4.928   4.873   1.067  0.0625  0.2494  0.2513
   52SOL    HW1  197   5.016   4.840   1.046  0.0956 -1.6676  2.7345
   52SOL    HW2  198   4.944   4.952   1.119  0.4238 -0.5458  1.4009
   53SOL     OW  199   0.465   1.237   0.632 -0.6990 -0.8527  0.3631
   53SOL    HW1  200   0.411   1.242   0.711 -0.1405  2.7769  0.7043
   53SOL    HW2  201   0.443   1.316   0.583  3.1775  0.1103 -0.1731
   54SOL     OW  202   0.516   1.917   0.692  0.0057 -0.6369  0.2625
   54SOL    HW1  203   0.492   1.984   0.756 -3.0765 -0.8399 -0.5212
   54SOL    HW2  204   0.464   1.938   0.615  0.2706 -2.9352 -0.6141
   55SOL     OW  205   1.659   0.807   0.906  0.4653  0.0218  0.0102
   55SOL    HW1  206   1.580   0.841   0.948  0.9689  2.8405 -1.1161
   55SOL    HW2  207   1.637   0.804   0.813  1.2886 -0.2867 -0.1805
   56SOL     OW  208   1.204   1.680   1.553  0.3660  0.8685  0.3639
   56SOL    HW1  209   1.228   1.753   1.495 -1.6362  1.1444 -0.1871
   56SOL    HW2  210   1.163   1.722   1.628  0.7321  0.3712  0.8477
   57SOL     OW  211   0.153   0.796   0.131 -0.2106 -0.5939  0.0281
   57SOL    HW1  212   0.099   0.836   0.063  0.6050  0.9877  0.2670
   57SOL    HW2  213   0.156   0.703   0.107 -0.5165 -0.2034 -1.7009
   58SOL     OW  214   1.741   0.719   0.584  0.5909 -0.3655 -0.5078
   58SOL    HW1  215   1.661   0.670   0.563  0.3158  0.1416 -0.6553
   58SOL    HW2  216   1.804   0.694   0.517  0.5480 -0.7518 -0.4033
   59SOL     OW  217   4.376   5.414   1.896  0.3128 -0.3550 -0.4807
   59SOL    HW1  218   4.441   5.349   1.925  0.1664 -1.0887 -1.7222
   59SOL    HW2  219   4.427   5.494   1.883  0.7084 -0.5289 -0.0415
   60SOL     OW  220   0.899   1.503   0.236 -0.0397 -0.7927  0.6391
   60SOL    HW1  221   0.854   1.468   0.313  0.8427 -0.8310  1.1385
   60SOL    HW2  222   0.829   1.511   0.170 -1.2473  1.1119  2.0232
   61SOL     OW  223   4.310   4.561   1.437 -0.4746 -0.0375  0.2851
   61SOL    HW1  224   4.362   4.555   1.517 -1.7100 -1.8606  1.0339
   61SOL    HW2  225   4.236   4.617   1.461  0.0648  0.8879 -0.1602
   62SOL     OW  226   1.445   1.601   0.495  0.0084 -0.3467 -0.2174
   62SOL    HW1  227   1.394   1.526   0.464 -2.0760  1.3124 -1.0815
   62SOL    HW2  228   1.408   1.622   0.581 -1.3801  1.2784 -1.1340
   63SOL     OW  229   4.256   1.609   0.263  0.0779  0.3624  0.4056
   63SOL    HW1  230   4.306   1.555   0.203  0.7795  1.1715  0.2470
   63SOL    HW2  231   4.197   1.547   0.307  0.6453 -0.4754  0.0194
   64SOL     OW  232   1.308   0.301   0.269 -0.8733  0.7104 -0.1762
   64SOL    HW1  233   1.241   0.353   0.226 -1.3062  0.1220 -0.2343
   64SOL    HW2  234   1.342   0.243   0.200 -0.7772  0.5468  0.0058
   65SOL     OW  235   4.440   1.812   1.283  0.1369  0.0989 -0.3043
   65SOL    HW1  236   4.355   1.838   1.319  0.2675  0.5357 -0.3012
   65SOL    HW2  237   4.443   1.854   1.197  0.6078  0.5917 -0.0512
   66SOL     OW  238   0.992   1.442   1.167  0.6908 -0.1306  0.2944
   66SOL    HW1  239   0.913   1.496   1.181  0.3975 -0.6454  0.6603
   66SOL    HW2  240   1.045   1.459   1.245 -0.0950 -1.5432  1.1731
   67SOL     OW  241   4.856   4.556   0.802  0.5149  0.4827  0.5618
   67SOL    HW1  242   4.841   4.569   0.896  1.1565  0.0208  0.7390
   67SOL    HW2  243   4.772   4.575   0.761  0.4972  1.7072  1.1255
   68SOL     OW  244   1.634   4.682   1.874  0.3730 -0.1953  0.0581
   68SOL    HW1  245   1.554   4.734   1.886  0.9446  0.3256  1.9333
   68SOL    HW2  246   1.629   4.615   1.941  1.9900  0.4928  0.9243
   69SOL     OW  247   2.577   6.305   2.970 -0.0895 -1.1914  0.0169
   69SOL    HW1  248   2.666   6.270   2.958  0.7490  0.8249 -0.0949
   69SOL    HW2  249   2.553   6.338   2.884 -1.0117 -1.7827  0.0336
   70SOL     OW  250   5.142   4.532   1.645 -0.4266  0.5659 -0.1542
   70SOL    HW1  251   5.147   4.599   1.713  0.4214 -0.7134  1.1045
   70SOL    HW2  252   5.212   4.555   1.584  0.5335  0.2724  0.8118
   71SOL     OW  253   4.776   1.491   1.404  0.0144  0.1289  0.9456
   71SOL    HW1  254   4.685   1.519   1.400  0.1292  0.4837  0.8578
   71SOL    HW2  255   4.817   1.548   1.469  0.6620  1.3527 -0.4758
   72SOL     OW  256   1.622   5.105   1.571 -0.2305  0.2027 -0.4107
   72SOL    HW1  257   1.609   5.053   1.492  0.6849 -1.8591  0.7314
   72SOL    HW2  258   1.551   5.170   1.569 -0.0662  0.4008 -3.0203
   73SOL     OW  259   0.712   1.389   0.858 -0.1560  0.8273 -0.5651
   73SOL    HW1  260   0.674   1.362   0.941 -2.5115 -2.1833 -2.3919
   73SOL    HW2  261   0.682   1.479   0.846 -1.7401  0.5384  0.8460
   74SOL     OW  262   1.152   0.924   0.971 -0.0291  0.1104 -0.3708
   74SOL    HW1  263   1.086   0.942   0.904 -1.2697 -0.8326  0.5589
   74SOL    HW2  264   1.152   0.829   0.981  2.0668  0.0097 -0.9054
   75SOL     OW  265   0.862   4.387   0.363 -0.1951 -0.0401 -0.4147
   75SOL    HW1  266   0.817   4.303   0.351  1.9354 -1.4370  0.7817
   75SOL    HW2  267   0.823   4.423   0.443 -0.3261 -0.4316 -0.2991
   76SOL     OW  268   1.538   1.366   0.136 -0.0632 -0.0752 -0.4314
   76SOL    HW1  269   1.448   1.331   0.139  0.1721 -0.6365  1.0071
   76SOL    HW2  270   1.527   1.460   0.121 -0.8340 -0.3098 -1.4378
   77SOL     OW  271   0.304   4.209   0.143 -0.1409 -0.0087 -0.4796
   77SOL    HW1  272   0.355   4.194   0.063  0.0082  0.2511 -0.4337
   77SOL    HW2  273   0.324   4.299   0.167  0.1601 -0.2254  0.0995
   78SOL     OW  274   1.465   0.342   0.506 -0.1004 -0.2294  0.3182
   78SOL    HW1  275   1.402   0.339   0.434 -0.5738 -0.3713  0.7374
   78SOL    HW2  276   1.476   0.251   0.533  0.6247 -0.2588 -0.0381
   79SOL     OW  277   5.522   1.363   1.827 -0.6081  0.2562  0.1893
   79SOL    HW1  278   5.544   1.453   1.803 -0.2959  0.3473  0.7948
   79SOL    HW2  279   5.533   1.313   1.747  0.5654  0.5180  0.1756
   80SOL     OW  280   1.081   1.824   0.894  0.5960  0.3520  0.4519
   80SOL    HW1  281   1.147   1.864   0.838  0.3721  2.2686  1.4733
   80SOL    HW2  282   1.004   1.814   0.837  1.2008 -0.2900 -0.2767
   81SOL     OW  283   0.439   0.663   0.540 -0.9050  0.1282  0.1662
   81SOL    HW1  284   0.446   0.720   0.617 -3.5065  1.6547 -0.6075
   81SOL    HW2  285   0.507   0.694   0.480 -1.7395  1.9476  0.0995
   82SOL     OW  286   1.042   1.704   0.375 -0.7225 -0.3291  0.1291
   82SOL    HW1  287   0.967   1.646   0.365 -1.6858  1.2292 -2.9524
   82SOL    HW2  288   1.086   1.702   0.291  0.4929  1.6618  0.6400
   83SOL     OW  289   0.845   0.851   0.331  0.4283 -0.3069 -0.0255
   83SOL    HW1  290   0.913   0.793   0.366 -1.3991 -0.7521  3.1295
   83SOL    HW2  291   0.860   0.935   0.374  0.8288  0.5747 -1.7877
   84SOL     OW  292   3.957   4.921   1.298  0.3540  0.8059 -0.6255
   84SOL    HW1  293   4.035   4.974   1.316  0.6206  0.4322 -0.6753
   84SOL    HW2  294   3.886   4.985   1.291  0.6414  1.1424 -0.5041
   85SOL     OW  295   0.842   4.702   1.032 -0.1881 -0.0514 -0.1134
   85SOL    HW1  296   0.825   4.668   1.120  0.7754  2.1197  1.0069
   85SOL    HW2  297   0.924   4.662   1.006 -0.5427 -0.8070 -0.0890
   86SOL     OW  298   0.962   4.987   0.920 -0.0287 -0.0613  0.1820
   86SOL    HW1  299   1.046   4.987   0.873 -0.3227 -0.3505 -0.3533
   86SOL    HW2  300   0.898   4.962   0.854 -0.6156  0.7026  0.4547
   87SOL     OW  301   0.899   4.372   0.957 -0.4497  0.3831 -0.0323
   87SOL    HW1  302   0.878   4.389   1.049 -0.5851 -2.6279  0.6056
   87SOL    HW2  303   0.814   4.366   0.914 -0.5182 -0.8506  0.2414
   88SOL     OW  304   1.905   0.843   1.046  0.1322  0.0811  0.0912
   88SOL    HW1  305   1.833   0.843   0.983 -0.4046 -0.9776  0.6923
   88SOL    HW2  306   1.862   0.835   1.131  0.9449 -0.1701  0.4802
   89SOL     OW  307   1.484   0.613   0.559 -0.0732 -0.2739  0.3014
   89SOL    HW1  308   1.467   0.519   0.556  0.5040 -0.3566 -0.8696
   89SOL    HW2  309   1.438   0.648   0.482  1.2406  0.1269 -0.3250
   90SOL     OW  310   1.673   0.807   0.279 -0.0609 -0.3816 -0.4048
   90SOL    HW1  311   1.668   0.840   0.369 -2.9685 -1.0663 -0.2065
   90SOL    HW2  312   1.747   0.746   0.280  0.3573  0.0906  1.3467
   91SOL     OW  313   2.879   3.489   2.768 -0.2430  0.1878 -0.0457
   91SOL    HW1  314   2.924   3.408   2.791  0.7774  0.8092  0.2568
   91SOL    HW2  315   2.847   3.474   2.679 -1.2706 -1.0282  0.5060
   92SOL     OW  316   1.584   1.163   0.645  0.0214  0.0396  0.0774
   92SOL    HW1  317   1.649   1.112   0.596 -1.6163  0.4229 -2.6683
   92SOL    HW2  318   1.634   1.237   0.681  1.3261 -0.3441 -0.8728
   93SOL     OW  319   1.132   0.647   0.211 -0.0805 -0.1161 -0.4411
   93SOL    HW1  320   1.106   0.658   0.303  1.5200 -0.7646  0.1185
   93SOL    HW2  321   1.053   0.612   0.169 -1.1776  1.1813  0.4277
   94SOL     OW  322   0.787   4.536   0.582  0.0336  0.3393 -0.3888
   94SOL    HW1  323   0.727   4.605   0.557 -1.4096  0.1784  2.2283
   94SOL    HW2  324   0.790   4.540   0.678  1.5799 -1.8387 -0.2533
   95SOL     OW  325   1.845   1.381   1.026 -0.3106 -0.1850  0.5480
   95SOL    HW1  326   1.896   1.430   1.091  1.9164 -0.3766 -0.9418
   95SOL    HW2  327   1.853   1.290   1.053 -2.2869 -0.0247  1.8648
   96SOL     OW  328   5.054   1.554   1.193 -0.2864 -0.6248 -0.0225
   96SOL    HW1  329   4.979   1.555   1.252 -0.3608  0.4898 -0.1136
   96SOL    HW2  330   5.016   1.563   1.106 -0.0388  0.3572 -0.0413
   97SOL     OW  331   1.493   1.706   1.474  0.2758 -0.1622 -0.1349
   97SOL    HW1  332   1.441   1.764   1.529 -1.5283  1.4292 -3.2451
   97SOL    HW2  333   1.464   1.618   1.499 -2.4689  0.6027 -0.2571
   98SOL     OW  334   1.014   1.369   0.871 -0.2297 -0.3473  0.2390
   98SOL    HW1  335   0.933   1.382   0.822 -0.1589  0.3527  0.3048
   98SOL    HW2  336   0.995   1.400   0.959  0.3971  0.7526  0.0052
   99SOL     OW  337   1.557   1.189   1.034 -0.0602  0.1604 -0.0945
   99SOL    HW1  338   1.648   1.212   1.014  0.2377 -1.3114 -0.5281
   99SOL    HW2  339   1.534   1.247   1.107  1.9125 -0.8340  1.4328
  100SOL     OW  340   5.160   4.603   1.298 -0.1236  0.2141  0.4439
  100SOL    HW1  341   5.175   4.509   1.286  0.1623  0.3808 -0.5862
  100SOL    HW2  342   5.217   4.627   1.371  0.5114 -0.2371  0.1028
  101SOL     OW  343   4.944   5.279   1.809 -0.2593 -0.5597 -0.1433
  101SOL    HW1  344   4.883   5.352   1.802  1.0549  0.4827 -1.1472
  101SOL    HW2  345   4.985   5.273   1.723  0.1123 -2.0967  0.1086
  102SOL     OW  346   0.742   1.218   0.647  0.0928  0.7253 -0.3710
  102SOL    HW1  347   0.743   1.288   0.712  0.0307  1.1841 -0.8472
  102SOL    HW2  348   0.652   1.186   0.648 -0.1217  1.2802 -0.7842
  103SOL     OW  349   4.462   5.140   1.442 -0.3722 -0.3692  0.4019
  103SOL    HW1  350   4.419   5.057   1.464 -0.3392 -0.0283  1.8130
  103SOL    HW2  351   4.493   5.174   1.525  0.6479  0.5131 -0.3121
  104SOL     OW  352   1.403   5.253   1.542  0.4221  0.5234  0.0088
  104SOL    HW1  353   1.324   5.256   1.487  0.1559  0.6827  0.3954
  104SOL    HW2  354   1.383   5.310   1.616  0.7629  0.2799  0.2927
  105SOL     OW  355   4.347   1.475   1.446 -0.2647  0.1555  0.0015
  105SOL    HW1  356   4.353   1.385   1.478  0.0486  0.0753 -0.2791
  105SOL    HW2  357   4.383   1.529   1.517  0.6541 -0.0415 -0.3030
  106SOL     OW  358   4.617   1.333   0.372  0.4820  0.1978  0.1566
  106SOL    HW1  359   4.627   1.269   0.302 -0.8041  0.3696 -0.2156
  106SOL    HW2  360   4.592   1.282   0.448 -0.7675  0.2381 -0.1948
  107SOL     OW  361   0.804   0.512   0.529  0.2398 -0.5753 -0.2033
  107SOL    HW1  362   0.791   0.481   0.618 -2.1376 -1.2829 -0.7136
  107SOL    HW2  363   0.760   0.447   0.474  0.3997  0.5749 -1.7706
  108SOL     OW  364   1.212   1.258   0.437 -0.9535 -0.0120 -0.2420
  108SOL    HW1  365   1.207   1.306   0.519  1.7294 -1.1539  0.6843
  108SOL    HW2  366   1.254   1.318   0.376  0.9870 -0.5538  0.4875
  109SOL     OW  367   5.194   1.594   1.406  0.6397 -0.2094  0.2417
  109SOL    HW1  368   5.148   1.594   1.322 -0.9734 -0.2200  1.0772
  109SOL    HW2  369   5.215   1.686   1.422  0.8516 -0.1943 -0.1233
  110SOL     OW  370   1.551   0.603   0.055  0.0733 -0.1051  0.5073
  110SOL    HW1  371   1.574   0.653   0.133 -0.4311 -0.4935  0.9175
  110SOL    HW2  372   1.467   0.562   0.077 -0.4545  0.3719 -0.5133
  111SOL     OW  373   4.527   1.578   1.204 -0.6820 -0.4807 -0.1914
  111SOL    HW1  374   4.455   1.555   1.263 -1.2854  1.9351  0.1436
  111SOL    HW2  375   4.522   1.673   1.196  1.9783 -0.3050 -0.8521
  112SOL     OW  376   4.730   5.218   1.607  0.2887  0.1845  0.3036
  112SOL    HW1  377   4.744   5.310   1.587  1.3077 -0.1344 -0.5189
  112SOL    HW2  378   4.787   5.171   1.546 -0.7549 -1.0194  0.2158
  113SOL     OW  379   2.032   5.342   1.730 -0.3861 -0.3732 -0.3317
  113SOL    HW1  380   1.944   5.341   1.769  0.3508 -0.2232  1.4377
  113SOL    HW2  381   2.068   5.427   1.756  1.3718 -1.6259  1.6747
  114SOL     OW  382   5.360   4.642   1.482  0.3345 -0.1130  0.0456
  114SOL    HW1  383   5.369   4.736   1.493  0.1483  0.2006 -2.0802
  114SOL    HW2  384   5.450   4.610   1.473  0.4343 -0.2528  1.3359
  115SOL     OW  385   4.712   4.428   1.430  0.0367 -0.1796 -0.1610
  115SOL    HW1  386   4.749   4.460   1.512  2.7920 -1.6092 -0.6959
  115SOL    HW2  387   4.731   4.334   1.430 -2.4472 -0.7502 -1.2092
  116SOL     OW  388   4.648   1.012   0.902  0.1535  0.1413  0.2269
  116SOL    HW1  389   4.591   1.041   0.831  0.9560 -0.0064 -0.4947
  116SOL    HW2  390   4.629   0.919   0.913  1.3634 -0.2920 -1.1053
  117SOL     OW  391   1.473   0.978   0.809  0.1602  0.5681 -0.6030
  117SOL    HW1  392   1.508   1.048   0.754  0.5133 -0.5742 -1.8922
  117SOL    HW2  393   1.416   0.928   0.751 -0.8928  0.3492  0.5632
  118SOL     OW  394   1.355   0.742   0.368 -0.0570 -0.2615 -0.0551
  118SOL    HW1  395   1.281   0.730   0.309  0.6277 -0.3890 -0.9135
  118SOL    HW2  396   1.362   0.837   0.379 -0.5524 -0.2610  0.3196
  119SOL     OW  397   4.926   5.128   1.179 -0.0491  0.3648  0.5848
  119SOL    HW1  398   4.960   5.175   1.103 -2.0763  0.9123 -0.0250
  119SOL    HW2  399   4.850   5.179   1.207 -0.8434 -1.2086  1.4236
  120SOL     OW  400   4.189   1.492   1.236 -0.0779 -0.5832 -0.2930
  120SOL    HW1  401   4.230   1.508   1.321 -1.3938  1.1109  0.0811
  120SOL    HW2  402   4.242   1.423   1.197  3.1487  1.4100  0.1471
  121SOL     OW  403   0.747   0.951   0.989 -0.3654 -0.3372 -0.1184
  121SOL    HW1  404   0.677   0.956   0.924 -0.3023 -0.0498 -0.1673
  121SOL    HW2  405   0.826   0.933   0.939 -0.5131 -1.3686  0.0096
  122SOL     OW  406   1.746   5.286   1.790  0.2652  0.1087  0.1425
  122SOL    HW1  407   1.702   5.226   1.729 -0.9668 -0.1062  1.1935
  122SOL    HW2  408   1.714   5.259   1.876  0.4610  1.6535  0.7220
  123SOL     OW  409   4.169   4.157   0.783 -0.1965 -0.1546 -0.3851
  123SOL    HW1  410   4.260   4.187   0.795 -0.3107  0.0805 -0.0721
  123SOL    HW2  411   4.157   4.153   0.688 -0.4900  1.8199 -0.4742
  124SOL     OW  412   3.909   2.588   3.027  0.0482 -0.3638 -0.3181
  124SOL    HW1  413   3.917   2.608   2.934 -1.1061  0.4737 -0.2672
  124SOL    HW2  414   3.857   2.661   3.062  1.2836 -0.1513  1.1727
  125SOL     OW  415   5.037   1.254   1.094  0.1145 -0.2436  0.4042
  125SOL    HW1  416   5.111   1.314   1.104 -0.9904  1.2731 -0.1759
  125SOL    HW2  417   5.037   1.202   1.174  3.3546 -2.1504 -0.6287
  126SOL     OW  418   5.151   1.476   1.959 -0.5566  0.1309 -0.0983
  126SOL    HW1  419   5.177   1.516   1.877 -0.0295 -2.5412 -1.3577
  126SOL    HW2  420   5.108   1.546   2.008  1.0869  2.3682 -1.6909
  127SOL     OW  421   1.716   1.418   1.318 -0.0350  0.2789 -0.3794
  127SOL    HW1  422   1.707   1.513   1.328  1.4830  0.3245  1.0059
  127SOL    HW2  423   1.801   1.407   1.276 -0.1955 -0.4729 -0.5133
  128SOL     OW  424   4.570   5.259   1.987 -0.2771  0.4694 -0.1784
  128SOL    HW1  425   4.635   5.326   1.965  1.1608 -1.4492 -2.1609
  128SOL    HW2  426   4.591   5.234   2.077  0.3497  1.3637 -0.0586
  129SOL     OW  427   3.774   2.869   2.857 -0.1882 -0.2316  0.1261
  129SOL    HW1  428   3.809   2.795   2.809 -0.5988  0.6959 -1.6889
  129SOL    HW2  429   3.760   2.836   2.946  1.5076 -1.7238 -0.1051
  130SOL     OW  430   1.117   0.950   0.105  0.0470 -0.3470  0.1031
  130SOL    HW1  431   1.119   0.862   0.142 -0.5003 -0.1567  0.5984
  130SOL    HW2  432   1.115   0.936   0.010 -1.5049 -0.9137  0.1939
  131SOL     OW  433   1.394   1.444   0.906  0.8777  0.4343  0.3120
  131SOL    HW1  434   1.458   1.419   0.973  1.4814 -0.3916 -0.5364
  131SOL    HW2  435   1.314   1.396   0.930  1.5596 -1.1420 -0.4054
  132SOL     OW  436   4.557   0.745   0.885 -0.2125  0.3300  0.0293
  132SOL    HW1  437   4.477   0.752   0.834 -0.4369 -0.9908  0.1558
  132SOL    HW2  438   4.593   0.659   0.861  2.1475  1.6093 -1.4086
  133SOL     OW  439   4.598   4.824   0.793  0.0672  0.4800  0.3682
  133SOL    HW1  440   4.515   4.804   0.748 -0.0020  0.7691  0.3660
  133SOL    HW2  441   4.608   4.754   0.857  0.7453 -0.5908 -0.8691
  134SOL     OW  442   1.130   5.041   1.388 -0.0396 -0.2700 -0.2725
  134SOL    HW1  443   1.067   5.026   1.318  0.4456  1.9022 -1.2446
  134SOL    HW2  444   1.214   5.013   1.351  0.1073  0.2206 -0.3227
  135SOL     OW  445   1.330   4.912   1.277  0.2751 -0.3815  0.1943
  135SOL    HW1  446   1.413   4.959   1.286 -0.7409  1.2075  1.7366
  135SOL    HW2  447   1.342   4.832   1.327  1.3584 -0.9208 -0.8601
  136SOL     OW  448   2.520   3.463   2.721  0.3100  0.3332 -0.0407
  136SOL    HW1  449   2.426   3.451   2.702  0.5062 -0.7491 -0.4199
  136SOL    HW2  450   2.532   3.420   2.806  0.6403 -0.4063 -0.4529
  137SOL     OW  451   4.390   1.897   1.033 -0.3236  0.2613  0.5352
  137SOL    HW1  452   4.355   1.817   0.996  1.3031 -0.9989  1.5972
  137SOL    HW2  453   4.440   1.937   0.962 -0.1713 -0.2735  0.3428
  138SOL     OW  454   4.386   1.671   0.864 -0.3591  0.5247 -0.1775
  138SOL    HW1  455   4.459   1.626   0.821 -0.6578 -0.4680  0.3426
  138SOL    HW2  456   4.314   1.666   0.801 -0.5324 -0.1448  0.0725
  139SOL     OW  457   1.055   1.134   1.279  0.0360  0.0918  0.1511
  139SOL    HW1  458   1.019   1.221   1.296 -1.9229 -0.4594 -0.8504
  139SOL    HW2  459   1.019   1.079   1.349  1.3183  0.0529  0.8187
  140SOL     OW  460   4.191   4.955   1.068  0.3962  0.0843 -0.2174
  140SOL    HW1  461   4.244   4.938   1.146  1.9045  0.3444 -1.1342
  140SOL    HW2  462   4.179   4.870   1.027 -0.4918 -0.0683  0.3329
  141SOL     OW  463   4.347   4.896   1.717  0.0471  0.4558  0.2745
  141SOL    HW1  464   4.392   4.979   1.735  1.3968 -0.2569  0.3111
  141SOL    HW2  465   4.414   4.840   1.678 -0.0538 -1.5539  2.7425
  142SOL     OW  466   1.220   5.422   1.684  0.1989  0.3568 -0.5081
  142SOL    HW1  467   1.160   5.458   1.750  0.3217  1.9421 -1.2062
  142SOL    HW2  468   1.163   5.391   1.614 -0.1036 -3.4670  1.1628
  143SOL     OW  469   0.616   0.340   0.427 -0.3645 -0.4417  0.1840
  143SOL    HW1  470   0.620   0.379   0.339 -0.9141 -0.6620  0.0608
  143SOL    HW2  471   0.537   0.377   0.466  0.7175  0.9356  1.2122
  144SOL     OW  472   1.455   0.831   1.103 -0.1434 -0.2644 -0.0483
  144SOL    HW1  473   1.488   0.816   1.191 -0.0870 -0.4674 -0.1018
  144SOL    HW2  474   1.411   0.749   1.080 -1.1392  0.1869  0.2185
  145SOL     OW  475   4.277   1.497   2.042  0.8023 -0.5676  0.8153
  145SOL    HW1  476   4.235   1.421   2.003  1.1996  0.7672 -2.6181
  145SOL    HW2  477   4.219   1.570   2.019  1.5583  0.4510  2.0276
  146SOL     OW  478   5.163   0.933   1.303  0.1161  0.2933  0.3083
  146SOL    HW1  479   5.152   0.842   1.278  2.3713 -0.4427  1.6825
  146SOL    HW2  480   5.194   0.976   1.223  1.0149 -0.6076  0.1554
  147SOL     OW  481   5.395   2.043   1.643 -0.8983 -0.1817 -0.1962
  147SOL    HW1  482   5.463   2.004   1.698 -1.2816 -1.4846 -0.6144
  147SOL    HW2  483   5.444   2.089   1.575 -0.4328  0.3052  0.4516
  148SOL     OW  484   4.298   5.223   1.707  0.6804 -0.1151 -0.1398
  148SOL    HW1  485   4.326   5.294   1.765  2.0243 -1.0004  0.3383
  148SOL    HW2  486   4.258   5.159   1.765  0.9815 -0.4865 -0.3382
  149SOL     OW  487   1.205   1.241   1.020  0.1941  0.0966  0.8054
  149SOL    HW1  488   1.153   1.251   1.099  0.3210  1.0690  0.7726
  149SOL    HW2  489   1.148   1.271   0.949  0.4182  0.1406  0.6401
  150SOL     OW  490   3.218   3.376   2.929  0.4265  0.1507  0.1335
  150SOL    HW1  491   3.145   3.316   2.912  0.0726  0.2737  1.1252
  150SOL    HW2  492   3.296   3.320   2.930  0.4994  0.1459 -1.8609
  151SOL     OW  493   1.282   1.901   0.721  0.6215 -0.4532  0.4397
  151SOL    HW1  494   1.258   1.867   0.634  1.0460  0.1560  0.0818
  151SOL    HW2  495   1.349   1.840   0.752  1.3561  0.0292 -0.1855
  152SOL     OW  496   0.953   1.812   0.645 -0.3155  0.5994  0.0125
  152SOL    HW1  497   0.973   1.755   0.571 -0.8728 -0.2907  0.5345
  152SOL    HW2  498   0.955   1.900   0.608 -3.1639  0.0754 -1.7261
  153SOL     OW  499   4.587   1.414   1.004 -0.0261 -0.7004  0.0181
  153SOL    HW1  500   4.569   1.478   1.073 -1.4576 -1.6993  0.6094
  153SOL    HW2  501   4.650   1.353   1.043  2.4049  1.0183 -0.9925
  154SOL     OW  502   4.723   1.862   2.173 -0.3312  0.0263  0.2078
  154SOL    HW1  503   4.754   1.893   2.088  1.0714 -0.9048  0.3458
  154SOL    HW2  504   4.652   1.801   2.152 -1.1228  1.0685 -0.1987
  155SOL     OW  505   0.786   0.079   0.045 -0.0502 -0.0634  0.2936
  155SOL    HW1  506   0.690   0.088   0.040  0.0480  0.6172 -0.6150
  155SOL    HW2  507   0.800  -0.015   0.056 -0.7409 -0.6498 -2.9631
  156SOL     OW  508   2.159   4.431   0.472  0.2584  0.1946  0.3375
  156SOL    HW1  509   2.137   4.400   0.560 -1.7185 -2.0863 -0.8465
  156SOL    HW2  510   2.254   4.417   0.465 -0.0568 -3.1049  0.9342
  157SOL     OW  511   1.669   1.695   0.391  0.3429 -0.0593  0.2240
  157SOL    HW1  512   1.749   1.644   0.404  0.7236  0.1019 -1.3502
  157SOL    HW2  513   1.600   1.643   0.435  0.9471 -1.2455 -0.1931
  158SOL     OW  514   4.072   1.713   2.053 -0.0488 -0.8273  0.1099
  158SOL    HW1  515   3.987   1.728   2.013 -0.1763 -0.9547  0.3341
  158SOL    HW2  516   4.117   1.797   2.047 -0.9252 -0.2052  1.7526
  159SOL     OW  517   1.250   0.942   0.622 -0.2175 -0.0771 -0.3486
  159SOL    HW1  518   1.264   0.962   0.529  1.5064 -0.1243 -0.1369
  159SOL    HW2  519   1.206   1.019   0.658  2.5083  1.6285 -0.4372
  160SOL     OW  520   5.136   1.254   1.734  0.5279 -0.1836 -0.2958
  160SOL    HW1  521   5.172   1.311   1.801 -1.3430  2.3882 -1.3190
  160SOL    HW2  522   5.082   1.191   1.783 -0.0110  1.0101  0.6939
  161SOL     OW  523   2.950   3.861   2.915  0.8480  0.6359 -0.6042
  161SOL    HW1  524   2.886   3.856   2.844  1.2166  0.8455 -0.9500
  161SOL    HW2  525   2.935   3.781   2.966 -0.2046  1.0480 -0.2361
  162SOL     OW  526   1.504   1.787   1.101 -0.0917 -0.4072  0.2678
  162SOL    HW1  527   1.551   1.723   1.048  0.4367 -0.2685  0.5689
  162SOL    HW2  528   1.563   1.808   1.173 -0.6903 -0.3815  0.7625
  163SOL     OW  529   1.962   4.446   1.182  0.0382 -0.1327  0.3986
  163SOL    HW1  530   1.948   4.399   1.100  2.5718  1.2372 -0.9231
  163SOL    HW2  531   1.918   4.530   1.170  0.3331  0.0345  0.4656
  164SOL     OW  532   4.380   4.383   0.825 -0.2195  0.0403 -0.0285
  164SOL    HW1  533   4.422   4.342   0.750 -0.3132  0.1544 -0.1419
  164SOL    HW2  534   4.446   4.442   0.861 -0.1147 -0.1435  0.0815
  165SOL     OW  535   1.169   1.708   0.121  0.5687 -0.0066 -0.2456
  165SOL    HW1  536   1.263   1.706   0.104  0.5096 -0.5604 -0.5184
  165SOL    HW2  537   1.135   1.627   0.082  0.3066 -0.9253  1.7138
  166SOL     OW  538   4.971   1.291   1.386  0.1344  0.5019  0.0727
  166SOL    HW1  539   5.052   1.312   1.431 -0.4788 -0.7389  1.8420
  166SOL    HW2  540   4.910   1.361   1.411  0.1142  0.4066  0.2907
  167SOL     OW  541   0.629   0.727   0.383 -0.1170 -0.5339  0.3846
  167SOL    HW1  542   0.713   0.763   0.356 -0.3709  0.1410  0.4711
  167SOL    HW2  543   0.620   0.646   0.333  0.1238 -0.0939 -0.3765
  168SOL     OW  544   4.152   3.735   2.898 -0.2040 -0.3682  0.5704
  168SOL    HW1  545   4.061   3.747   2.922 -0.9408 -1.0679 -1.6042
  168SOL    HW2  546   4.192   3.690   2.972 -1.7770 -0.6295  1.2789
  169SOL     OW  547   4.414   1.126   1.306 -0.4125  0.0754  0.4795
  169SOL    HW1  548   4.422   1.189   1.235 -1.3800  0.1511  0.4169
  169SOL    HW2  549   4.470   1.160   1.376  0.9772 -0.2773 -0.4195
  170SOL     OW  550   1.468   1.403   1.202  0.2195  0.2565  1.0950
  170SOL    HW1  551   1.544   1.418   1.258  1.5077 -0.8447 -0.2472
  170SOL    HW2  552   1.394   1.438   1.251  1.3973  0.1682  3.0459
  171SOL     OW  553   0.883   1.050   0.504 -0.0446 -0.4233 -0.1957
  171SOL    HW1  554   0.907   1.099   0.425 -3.6079 -0.8725 -1.7579
  171SOL    HW2  555   0.837   1.114   0.558 -0.1703 -0.8208  0.1728
  172SOL     OW  556   0.943   4.949   1.193  0.1414  0.5216 -0.3356
  172SOL    HW1  557   0.861   4.905   1.215 -1.3149  3.3989  0.4845
  172SOL    HW2  558   0.943   4.952   1.097 -0.4926  0.0992 -0.3583
  173SOL     OW  559   4.615   1.545   0.542  0.0416 -0.6126 -0.8750
  173SOL    HW1  560   4.588   1.497   0.464  0.3926 -2.1296 -0.0901
  173SOL    HW2  561   4.601   1.485   0.615  0.9496  0.2885  0.0942
  174SOL     OW  562   1.653   4.684   1.548  0.0111  0.1743  0.1304
  174SOL    HW1  563   1.571   4.690   1.597 -0.4586  0.1003 -0.6334
  174SOL    HW2  564   1.630   4.710   1.459  1.0642  1.3470  0.1631
  175SOL     OW  565   0.309   1.121   0.194  0.0759  0.3433 -0.1231
  175SOL    HW1  566   0.310   1.152   0.103 -0.0843 -0.9504 -0.5830
  175SOL    HW2  567   0.351   1.035   0.191  0.3479  0.4109  1.0910
  176SOL     OW  568   4.326   4.780   1.966 -0.1360  0.3748 -0.7210
  176SOL    HW1  569   4.351   4.689   1.981 -2.6691 -0.3410 -0.2853
  176SOL    HW2  570   4.330   4.792   1.871  1.5829  0.2902 -0.6836
  177SOL     OW  571   5.040   4.842   1.335  0.2121 -0.6333  0.3927
  177SOL    HW1  572   5.071   4.752   1.338  1.9089 -0.1021  0.0578
  177SOL    HW2  573   4.948   4.835   1.311  0.6685 -2.2173 -1.0737
  178SOL     OW  574   0.056   0.271  -0.002 -0.2754  0.3338  0.5455
  178SOL    HW1  575   0.126   0.322   0.040  1.2994 -1.0561 -0.2926
  178SOL    HW2  576   0.060   0.296  -0.094  1.1543 -1.8762 -0.0711
  179SOL     OW  577   1.647   4.689   1.258  0.5478  0.0078 -0.4200
  179SOL    HW1  578   1.636   4.626   1.187  2.1229  0.1459 -0.8309
  179SOL    HW2  579   1.741   4.706   1.260  0.3219  1.2627  0.6304
  180SOL     OW  580   4.563   4.428   0.530  0.0151  0.1685 -0.0459
  180SOL    HW1  581   4.533   4.485   0.459 -0.0713 -0.5894 -0.6337
  180SOL    HW2  582   4.499   4.357   0.532  0.7189 -0.4814 -0.0653
  181SOL     OW  583   1.067   1.439   0.017  0.2224 -0.2478 -0.2743
  181SOL    HW1  584   1.072   1.350  -0.019 -2.1349  0.2179 -1.9896
  181SOL    HW2  585   0.980   1.442   0.058 -0.1993  1.5940 -1.2350
  182SOL     OW  586   4.772   1.144   1.513 -0.0296 -0.2992 -0.1787
  182SOL    HW1  587   4.750   1.098   1.432  0.3299  0.6120 -0.7994
  182SOL    HW2  588   4.863   1.170   1.502 -0.1798  0.4134  0.2345
  183SOL     OW  589   1.248   1.692   1.115 -0.0943 -0.0541  0.6513
  183SOL    HW1  590   1.205   1.749   1.050 -1.6193 -2.2893 -0.4492
  183SOL    HW2  591   1.338   1.724   1.119 -1.3444  3.9274  1.9431
  184SOL     OW  592   4.899   5.042   1.484 -0.3701  0.1363 -0.1147
  184SOL    HW1  593   4.825   4.990   1.453  0.5415 -1.4945  0.3100
  184SOL    HW2  594   4.976   4.992   1.457  0.5381  0.8884  0.9859
  185SOL     OW  595   1.687   1.146   1.435  0.1325 -0.1966 -0.3398
  185SOL    HW1  596   1.691   1.236   1.403  1.6576 -0.1898 -0.1937
  185SOL    HW2  597   1.615   1.147   1.499  1.5678  1.4991  1.3613
  186SOL     OW  598   4.604   1.841   1.499 -0.4760  0.5032 -0.1726
  186SOL    HW1  599   4.548   1.827   1.423 -0.8296 -0.5076  0.2593
  186SOL    HW2  600   4.546   1.875   1.567 -0.9104 -1.7715  0.6941
  187SOL     OW  601   1.257   4.403   0.416  0.1332  0.0676 -0.1166
  187SOL    HW1  602   1.352   4.399   0.423  0.0979 -1.9852 -0.2250
  187SOL    HW2  603   1.241   4.474   0.353  1.5609  0.6321  0.1156
  188SOL     OW  604   0.811   0.748   0.684 -1.0595  0.1009  0.0374
  188SOL    HW1  605   0.800   0.695   0.606  1.3632 -0.0526 -0.2532
  188SOL    HW2  606   0.751   0.822   0.671  1.0937  1.4689 -3.2406
  189SOL     OW  607   1.766   5.181   1.282  0.1289 -0.1656  0.1895
  189SOL    HW1  608   1.700   5.242   1.249  1.1389  0.7146 -0.2401
  189SOL    HW2  609   1.798   5.221   1.363  0.7328 -0.1480 -0.0477
  190SOL     OW  610   2.935   3.605   3.011 -0.2197 -0.3048 -0.7002
  190SOL    HW1  611   2.909   3.579   2.922  1.2520  0.1373 -1.2990
  190SOL    HW2  612   2.939   3.522   3.060 -0.5246 -0.6168 -1.1906
  191SOL     OW  613   4.816   1.636   1.009  0.2028  0.6057  0.2771
  191SOL    HW1  614   4.752   1.594   1.066  1.2777 -1.1956  0.2730
  191SOL    HW2  615   4.770   1.649   0.926  0.0674 -1.5866 -0.0494
  192SOL     OW  616   0.946   0.947   0.778  0.4570  0.3247 -0.6257
  192SOL    HW1  617   0.925   0.988   0.694  0.2274 -0.7393 -1.1130
  192SOL    HW2  618   0.915   0.857   0.769 -0.8268  0.5266  1.0935
  193SOL     OW  619   3.021   3.232   2.779 -0.0532  0.2063  0.4638
  193SOL    HW1  620   2.971   3.167   2.829  0.4056 -0.4192  0.1204
  193SOL    HW2  621   3.043   3.188   2.698 -0.0727  0.9388  0.0533
  194SOL     OW  622   1.993   1.362   0.758 -0.1120 -0.5351  0.0636
  194SOL    HW1  623   1.934   1.362   0.834  1.9940  1.3101  1.8344
  194SOL    HW2  624   2.047   1.283   0.769 -0.0389 -0.4542  0.2827
  195SOL     OW  625   4.369   5.437   2.174  0.0067 -0.4298  0.0262
  195SOL    HW1  626   4.453   5.478   2.191 -0.6677  1.3182 -0.6194
  195SOL    HW2  627   4.367   5.424   2.079 -0.4910 -0.3071  0.0148
  196SOL     OW  628   4.208   1.498   0.674  0.9285 -0.0059 -0.4707
  196SOL    HW1  629   4.223   1.562   0.605  0.1710  0.8586  0.1427
  196SOL    HW2  630   4.113   1.499   0.688  0.8881 -1.3095 -0.4762
  197SOL     OW  631   5.271   5.244   2.000  0.1245 -0.3590  0.5443
  197SOL    HW1  632   5.211   5.205   2.063 -1.5037  0.3057 -0.5493
  197SOL    HW2  633   5.224   5.242   1.917  1.3678  0.7702 -0.2304
  198SOL     OW  634   1.590   4.449   1.121  0.0438 -0.1903 -0.3882
  198SOL    HW1  635   1.606   4.415   1.209 -1.4389 -2.1017 -0.7981
  198SOL    HW2  636   1.614   4.377   1.063  0.1180  0.7166 -1.5051
  199SOL     OW  637   0.739   4.752   0.790 -0.4734 -0.0425 -0.1571
  199SOL    HW1  638   0.649   4.720   0.787  0.0533 -1.6187 -0.1091
  199SOL    HW2  639   0.763   4.748   0.883 -0.3007  0.2161 -0.1895
  200SOL     OW  640   1.715   1.629   0.952  0.0871  0.4645 -0.2972
  200SOL    HW1  641   1.793   1.676   0.983  1.0419  0.0502 -1.9321
  200SOL    HW2  642   1.722   1.542   0.992 -0.7417  1.0999  1.3128
  201SOL     OW  643   4.514   4.952   1.132 -0.0913  0.2324 -0.0164
  201SOL    HW1  644   4.524   5.017   1.062 -1.2041  0.1447 -0.2783
  201SOL    HW2  645   4.560   4.875   1.100 -0.0779  0.3894 -0.3874
  202SOL     OW  646   0.767   1.644   0.789 -0.2618  0.2133  0.4937
  202SOL    HW1  647   0.840   1.691   0.748 -1.5501 -0.5093 -2.9933
  202SOL    HW2  648   0.700   1.712   0.804 -0.6133  0.1730 -0.7837
  203SOL     OW  649   1.321   4.618   1.141  0.0577  0.1655  0.4359
  203SOL    HW1  650   1.403   4.617   1.093  0.7329 -2.0723  1.5075
  203SOL    HW2  651   1.346   4.630   1.232 -0.9602  1.2385  0.6007
  204SOL     OW  652   0.905   4.355   1.238  0.3440 -0.1979  0.2333
  204SOL    HW1  653   0.988   4.351   1.287  0.1143 -2.9057  0.5834
  204SOL    HW2  654   0.885   4.263   1.218 -2.1422  0.4514 -0.6070
  205SOL     OW  655   0.545   1.345   0.199  0.3132  0.1298  0.3340
  205SOL    HW1  656   0.488   1.336   0.275  0.6354 -0.6848  0.4928
  205SOL    HW2  657   0.633   1.328   0.233  0.2950 -1.8174 -0.4986
  206SOL     OW  658   5.126   1.591   1.709  0.4393 -0.3901  0.2069
  206SOL    HW1  659   5.166   1.540   1.639  2.6620 -0.3580  1.3795
  206SOL    HW2  660   5.138   1.682   1.684 -0.6091 -0.3724 -0.3088
  207SOL     OW  661   1.209   0.422   0.040 -0.4284 -0.4213 -0.0793
  207SOL    HW1  662   1.256   0.416  -0.043  0.3617 -0.2722  0.3434
  207SOL    HW2  663   1.189   0.515   0.049 -0.6021 -0.4516 -0.1478
  208SOL     OW  664   1.030   0.649   0.466 -0.2509  0.7689 -0.0890
  208SOL    HW1  665   1.060   0.650   0.557  0.0636  1.7820 -0.1861
  208SOL    HW2  666   0.948   0.599   0.468  0.2590 -0.0577  0.5749
  209SOL     OW  667   1.551   4.641   0.787 -0.3602  0.2089 -0.4131
  209SOL    HW1  668   1.618   4.587   0.829 -0.6854 -1.2278 -1.6278
  209SOL    HW2  669   1.598   4.718   0.755  0.4461 -0.1239 -0.0566
  210SOL     OW  670   0.085   1.175   0.035 -0.0940  0.1444 -0.3115
  210SOL    HW1  671   0.003   1.127   0.043  0.8830 -1.3632  1.2521
  210SOL    HW2  672   0.130   1.160   0.118  1.4745  1.4941 -0.8704
  211SOL     OW  673   0.420   1.597   0.154 -0.0761  0.4836 -0.7292
  211SOL    HW1  674   0.441   1.624   0.064  0.5605 -0.0500 -0.7489
  211SOL    HW2  675   0.486   1.531   0.175  0.2447  1.1551  0.4145
  212SOL     OW  676   4.402   5.353   2.623  0.0274  0.6558 -0.3070
  212SOL    HW1  677   4.307   5.344   2.638 -0.1843  0.3177 -1.6848
  212SOL    HW2  678   4.424   5.440   2.655 -0.1210 -0.3601  2.9045
  213SOL     OW  679   4.873   4.285   2.770  0.6805 -0.0794 -0.2975
  213SOL    HW1  680   4.875   4.371   2.812  0.0087 -0.4187  0.4597
  213SOL    HW2  681   4.913   4.300   2.684  0.6653  0.9666 -0.1439
  214SOL     OW  682   4.364   5.222   2.375  0.2524  0.0240 -0.2330
  214SOL    HW1  683   4.391   5.240   2.465  0.8495  0.0247 -0.4040
  214SOL    HW2  684   4.347   5.309   2.338  0.4916  0.0570 -0.2666
  215SOL     OW  685   4.985   5.607   2.973  0.3801 -0.4348 -0.0625
  215SOL    HW1  686   5.040   5.685   2.980  1.5814 -1.3132  0.7578
  215SOL    HW2  687   4.897   5.636   2.997  1.1123  0.3378  1.8913
  216SOL     OW  688   1.885   5.549   2.305 -0.4951 -0.0712  0.1747
  216SOL    HW1  689   1.950   5.494   2.349 -1.9283 -1.5476  0.5762
  216SOL    HW2  690   1.915   5.639   2.319  0.4550 -0.6193  1.9812
  217SOL     OW  691   5.086   5.024   2.167 -0.8557  0.0502  0.3373
  217SOL    HW1  692   5.068   5.017   2.261 -1.0338 -2.3807  0.1872
  217SOL    HW2  693   5.013   5.074   2.132 -1.3712  0.0262  1.3333
  218SOL     OW  694   2.267   5.050   2.206  0.3450  0.0987  0.1441
  218SOL    HW1  695   2.206   5.109   2.161  0.5696 -1.5522 -2.5452
  218SOL    HW2  696   2.211   4.985   2.249  0.1461  1.4107  1.9964
  219SOL     OW  697   4.931   5.488   2.735  0.8330  0.0304  0.4774
  219SOL    HW1  698   4.862   5.532   2.685  1.4593  3.1345  2.0811
  219SOL    HW2  699   4.930   5.533   2.820  4.5018 -0.0936  0.7123
  220SOL     OW  700   5.052   5.431   2.509  0.1230 -0.0367 -0.6673
  220SOL    HW1  701   5.140   5.411   2.541 -0.5445  0.9290  2.0233
  220SOL    HW2  702   5.000   5.445   2.588 -2.5386 -0.7682 -2.1600
  221SOL     OW  703   4.662   5.631   2.847  0.0074  0.4959 -0.0047
  221SOL    HW1  704   4.577   5.589   2.838  1.2659 -2.3393  0.4028
  221SOL    HW2  705   4.696   5.636   2.757  0.0839  0.1429  0.0055
  222SOL     OW  706   3.949   3.720   0.162 -0.5421  0.3587  0.0358
  222SOL    HW1  707   3.894   3.776   0.217 -1.8153  0.1138 -0.9164
  222SOL    HW2  708   3.934   3.752   0.073 -1.8085 -1.8254 -0.6219
  223SOL     OW  709   1.974   4.967   2.562  0.1002 -0.1573  0.2578
  223SOL    HW1  710   1.910   5.020   2.515  0.1489  0.0965  0.4779
  223SOL    HW2  711   2.042   5.029   2.589 -0.7254  0.0289  2.1072
  224SOL     OW  712   4.576   1.581   1.864  0.0160 -0.5995  0.5194
  224SOL    HW1  713   4.671   1.583   1.873  0.1248  1.9278 -0.4131
  224SOL    HW2  714   4.543   1.619   1.945 -0.0696  0.4284  0.0209
  225SOL     OW  715   4.499   5.742   2.170 -0.3879  0.5291  0.0689
  225SOL    HW1  716   4.427   5.764   2.111  1.4860  1.4444 -2.0130
  225SOL    HW2  717   4.556   5.685   2.119  1.5486  1.7115  0.7863
  226SOL     OW  718   4.400   5.618   2.740 -0.1786 -0.2217  0.1076
  226SOL    HW1  719   4.304   5.617   2.736 -0.3320  1.5750  1.7544
  226SOL    HW2  720   4.425   5.704   2.705  0.8282 -0.6689 -0.2961
  227SOL     OW  721   2.885   3.666   0.469  0.1346  0.0358 -0.1842
  227SOL    HW1  722   2.844   3.679   0.554  1.7248  0.9391  0.4978
  227SOL    HW2  723   2.816   3.629   0.414 -0.5131 -2.0373  1.8865
  228SOL     OW  724   4.699   4.931   2.176 -1.1867  0.0416  0.3649
  228SOL    HW1  725   4.661   5.013   2.206  0.0367  0.0186  2.1302
  228SOL    HW2  726   4.681   4.869   2.247 -1.4636 -1.0388 -0.6235
  229SOL     OW  727   3.670   2.119   0.191  0.2565  0.5693  0.0439
  229SOL    HW1  728   3.736   2.188   0.194  0.2377  0.5821  0.1655
  229SOL    HW2  729   3.600   2.155   0.136  1.0248 -0.0345 -1.3618
  230SOL     OW  730   4.616   5.185   2.727  0.8229 -0.2501  0.2729
  230SOL    HW1  731   4.543   5.240   2.700  1.9782 -0.0453 -2.8835
  230SOL    HW2  732   4.577   5.101   2.749 -0.4760  0.1342 -0.4649
  231SOL     OW  733   1.854   5.838   2.153  0.2156 -0.0768 -0.5297
  231SOL    HW1  734   1.890   5.923   2.178  0.0931 -0.0139 -0.5624
  231SOL    HW2  735   1.899   5.816   2.071  2.6758 -1.5850  1.0796
  232SOL     OW  736   4.200   1.798   2.320 -0.0886  0.5553 -0.3140
  232SOL    HW1  737   4.157   1.762   2.398  0.6966 -1.1528 -0.6285
  232SOL    HW2  738   4.151   1.762   2.246 -0.7413  2.0548 -0.6539
  233SOL     OW  739   6.161   5.628   2.650  0.3896  0.1270 -0.2633
  233SOL    HW1  740   6.156   5.654   2.558 -0.4980  1.0761  0.0382
  233SOL    HW2  741   6.242   5.577   2.656  0.6641  0.3836 -1.4815
  234SOL     OW  742   6.317   5.151   2.842  0.0447  0.1799  0.5243
  234SOL    HW1  743   6.350   5.084   2.783 -0.3121 -0.6151  1.2164
  234SOL    HW2  744   6.242   5.188   2.796  1.3279  1.4194 -0.6795
  235SOL     OW  745   4.816   5.859   2.294  0.2871 -0.1787 -0.1415
  235SOL    HW1  746   4.727   5.864   2.329  0.5599 -0.0160  0.5519
  235SOL    HW2  747   4.829   5.766   2.275 -0.0282 -0.2039 -0.2501
  236SOL     OW  748   3.490   3.371   0.321  0.0158  0.4198 -0.1897
  236SOL    HW1  749   3.481   3.276   0.325 -2.6593  0.6121  0.0922
  236SOL    HW2  750   3.538   3.388   0.239 -0.3013 -1.1121 -0.7134
  237SOL     OW  751   5.484   4.742   2.421 -0.2971 -0.0197 -0.3083
  237SOL    HW1  752   5.398   4.762   2.384  0.2465  1.7893 -0.7015
  237SOL    HW2  753   5.539   4.722   2.346 -0.1765 -0.4146 -0.1187
  238SOL     OW  754   2.622   3.092   0.239  0.1022  0.1053 -0.0043
  238SOL    HW1  755   2.657   3.032   0.173 -1.1892 -0.8536  0.1469
  238SOL    HW2  756   2.688   3.091   0.309  1.5316  1.1984 -1.2471
  239SOL     OW  757   1.869   5.284   2.214 -0.0845  0.4371 -0.0742
  239SOL    HW1  758   1.816   5.302   2.137  1.2402  0.4194 -1.0263
  239SOL    HW2  759   1.911   5.368   2.234  2.0881 -0.2655 -1.3787
  240SOL     OW  760   5.882   5.509   2.909 -0.4723  0.2932 -0.4545
  240SOL    HW1  761   5.851   5.462   2.831  0.1003  0.1412 -0.6015
  240SOL    HW2  762   5.840   5.595   2.903  0.5871  0.7703 -1.6664
  241SOL     OW  763   5.973   2.058   2.404  0.3174  0.1174 -0.0706
  241SOL    HW1  764   6.046   2.059   2.466  0.8243  3.7294 -0.5048
  241SOL    HW2  765   5.915   2.128   2.433 -2.0502 -1.3699 -0.8848
  242SOL     OW  766   4.744   4.900   1.910  0.3692  0.0302 -0.5289
  242SOL    HW1  767   4.716   4.904   2.001  1.2514 -3.2559 -0.0136
  242SOL    HW2  768   4.672   4.941   1.861 -2.1288 -1.8809  1.3069
  243SOL     OW  769   5.866   4.216   2.375 -0.0898 -0.1954 -0.5366
  243SOL    HW1  770   5.834   4.129   2.354 -0.2068 -0.3222  0.1690
  243SOL    HW2  771   5.793   4.259   2.420 -0.2958  0.5213 -1.4889
  244SOL     OW  772   1.353   1.621   1.857 -0.2572  0.2674  0.1891
  244SOL    HW1  773   1.418   1.689   1.841  1.9116 -1.4050  1.3773
  244SOL    HW2  774   1.362   1.599   1.950 -0.8764 -1.6209 -0.1446
  245SOL     OW  775   2.907   2.705   0.209 -0.3338 -0.2031  0.3283
  245SOL    HW1  776   2.887   2.783   0.261  2.9571  0.7061  0.4645
  245SOL    HW2  777   2.900   2.733   0.118  0.3984  0.1784  0.3775
  246SOL     OW  778   3.293   2.649   0.210  0.2543 -0.3900 -0.0260
  246SOL    HW1  779   3.214   2.595   0.213  0.1146 -0.1925 -0.1516
  246SOL    HW2  780   3.306   2.678   0.300  0.3612 -0.6774  0.0523
  247SOL     OW  781   5.327   4.916   2.046  0.0025 -0.1488  0.1718
  247SOL    HW1  782   5.244   4.953   2.077  0.8057  1.2285  0.7867
  247SOL    HW2  783   5.331   4.942   1.954 -1.0357 -1.7476 -0.3681
  248SOL     OW  784   4.387   5.297   3.020 -0.3293  0.4011  0.2758
  248SOL    HW1  785   4.309   5.348   2.996 -1.1177 -0.5897  0.6487
  248SOL    HW2  786   4.368   5.208   2.989  1.2312  0.4034 -0.8153
  249SOL     OW  787   5.512   4.417   2.112 -0.6955  0.0458  0.4250
  249SOL    HW1  788   5.462   4.363   2.052 -0.4727 -1.3457  1.4244
  249SOL    HW2  789   5.467   4.407   2.196  1.2210 -1.3329  1.3779
  250SOL     OW  790   5.798   5.421   2.195 -0.0152 -0.0432  0.1363
  250SOL    HW1  791   5.738   5.440   2.123  1.6681 -1.2398 -1.6719
  250SOL    HW2  792   5.742   5.384   2.263 -1.5273  0.1807 -0.9312
  251SOL     OW  793   4.990   4.443   2.548  0.4825 -0.1008  0.9829
  251SOL    HW1  794   5.045   4.472   2.621  3.5596 -1.1141 -0.7285
  251SOL    HW2  795   4.980   4.522   2.494 -0.2369  0.2110  1.5524
  252SOL     OW  796   5.600   5.779   2.149  0.2108  0.5468 -0.3129
  252SOL    HW1  797   5.692   5.770   2.127 -0.6048 -2.3355 -3.2493
  252SOL    HW2  798   5.594   5.757   2.242  2.2442 -1.4240 -0.5895
  253SOL     OW  799   4.750   6.057   2.669  0.2751  0.3244  0.0097
  253SOL    HW1  800   4.799   5.992   2.619 -0.1046 -0.3906  0.5499
  253SOL    HW2  801   4.747   6.022   2.758 -0.7551  0.6116  0.1012
  254SOL     OW  802   5.951   5.588   2.356  0.2120  0.3361 -0.2490
  254SOL    HW1  803   5.910   5.518   2.305  0.8202  1.3054 -2.1325
  254SOL    HW2  804   6.045   5.570   2.351  0.3622  1.1804 -0.5950
  255SOL     OW  805   2.982   3.991   0.198 -0.1033 -0.1794 -0.4379
  255SOL    HW1  806   3.004   4.024   0.285  0.3243  0.6160 -0.8334
  255SOL    HW2  807   2.891   4.020   0.185  0.0948  0.4090 -0.5683
  256SOL     OW  808   4.618   5.194   2.266  0.0455 -0.2680  0.1244
  256SOL    HW1  809   4.561   5.175   2.340  0.2001 -0.2044  0.2605
  256SOL    HW2  810   4.688   5.248   2.303 -0.2752  0.3888 -0.2168
  257SOL     OW  811   5.984   4.952   2.576 -0.1571  0.0548  0.6131
  257SOL    HW1  812   5.972   5.009   2.652  1.6733  0.8956  0.3223
  257SOL    HW2  813   5.998   4.865   2.614 -0.5030  0.2291  1.1676
  258SOL     OW  814   5.084   1.734   2.089  0.2707 -0.1285  0.2525
  258SOL    HW1  815   5.136   1.736   2.169  2.0406 -1.3797 -0.7925
  258SOL    HW2  816   5.134   1.788   2.027  0.2106 -1.1146 -0.6907
  259SOL     OW  817   1.693   5.534   1.851  0.4449 -0.3396  0.5056
  259SOL    HW1  818   1.719   5.448   1.817 -0.4141 -0.6048  0.4951
  259SOL    HW2  819   1.633   5.514   1.922  0.2862  0.2551  0.5403
  260SOL     OW  820   4.854   5.585   2.234  0.3621 -0.2437  0.1108
  260SOL    HW1  821   4.847   5.536   2.316  0.6464  0.1431  0.3682
  260SOL    HW2  822   4.935   5.553   2.194  0.2881 -0.3437  0.0388
  261SOL     OW  823   1.514   4.477   2.034  0.5154 -0.3409 -0.0577
  261SOL    HW1  824   1.512   4.403   1.974  2.2910  0.7085 -1.4991
  261SOL    HW2  825   1.424   4.485   2.065 -0.2741 -1.4111 -1.9450
  262SOL     OW  826   4.396   5.989   2.916 -0.1299  0.1675 -0.2892
  262SOL    HW1  827   4.461   6.032   2.971 -1.2064  1.5528 -0.0410
  262SOL    HW2  828   4.370   5.911   2.965  0.7945  0.0007 -0.0536
  263SOL     OW  829   5.549   2.030   2.468 -0.0778 -0.1067 -0.1984
  263SOL    HW1  830   5.477   2.069   2.517 -1.4059 -0.2094 -1.9619
  263SOL    HW2  831   5.628   2.061   2.511 -1.1466 -0.7183  2.3689
  264SOL     OW  832   4.880   5.121   2.560 -0.2557 -0.1762  0.3952
  264SOL    HW1  833   4.796   5.102   2.518 -0.5839 -0.8982  1.3369
  264SOL    HW2  834   4.859   5.132   2.653  0.5596  0.5989  0.5066
  265SOL     OW  835   5.353   4.240   1.970  0.4566  0.3699  0.1749
  265SOL    HW1  836   5.294   4.253   2.044 -0.7953 -0.6123 -0.6382
  265SOL    HW2  837   5.303   4.267   1.893  1.2431  0.0020 -0.4875
  266SOL     OW  838   5.612   6.112   2.940 -0.0290  0.3260  0.7696
  266SOL    HW1  839   5.535   6.087   2.992 -0.5218  1.2218  0.4875
  266SOL    HW2  840   5.597   6.071   2.855 -1.0943  1.9250  0.1396
  267SOL     OW  841   3.584   2.963   0.130  0.6750 -0.4782 -0.2146
  267SOL    HW1  842   3.671   2.935   0.102  1.6534  0.9934  1.1096
  267SOL    HW2  843   3.580   3.056   0.106  0.2176 -0.0699  1.3003
  268SOL     OW  844   5.381   5.873   2.919 -0.3509 -0.1908 -0.6679
  268SOL    HW1  845   5.286   5.862   2.929 -0.3062 -0.9424 -1.0169
  268SOL    HW2  846   5.390   5.953   2.867 -0.8943 -1.3185 -2.5894
  269SOL     OW  847   5.310   4.865   2.736  0.1056  0.4722 -0.4269
  269SOL    HW1  848   5.329   4.804   2.664  1.1282  1.4242 -0.9970
  269SOL    HW2  849   5.244   4.819   2.789  0.2134 -0.7597 -1.2980
  270SOL     OW  850   4.991   4.059   2.120 -0.0837  0.1941  0.1049
  270SOL    HW1  851   5.036   3.996   2.064 -1.0519 -0.3642 -0.0575
  270SOL    HW2  852   5.054   4.079   2.189  1.2337  1.0896 -1.2863
  271SOL     OW  853   5.586   5.208   1.964  0.2123 -0.1183  0.4309
  271SOL    HW1  854   5.491   5.196   1.957  0.2707  0.1015 -1.1529
  271SOL    HW2  855   5.597   5.303   1.972  0.2921 -0.1878  1.3281
  272SOL     OW  856   4.844   4.517   1.664 -0.1961  0.9805  0.1094
  272SOL    HW1  857   4.861   4.611   1.672  1.5039  0.5272  3.5030
  272SOL    HW2  858   4.926   4.476   1.692 -1.2076 -1.5468 -0.4039
  273SOL     OW  859   5.504   4.726   2.167 -0.0471 -0.3531  0.0076
  273SOL    HW1  860   5.427   4.776   2.139  0.5144  0.6046  0.1284
  273SOL    HW2  861   5.483   4.635   2.145 -1.1868 -0.1021 -0.0086
  274SOL     OW  862   3.370   2.850   0.033  0.5249  0.1552 -0.7858
  274SOL    HW1  863   3.350   2.788   0.103  0.0881  1.8295  0.6534
  274SOL    HW2  864   3.452   2.891   0.060 -0.0602  1.3900 -0.8168
  275SOL     OW  865   5.493   5.571   2.764 -0.7621  0.2249  0.1527
  275SOL    HW1  866   5.533   5.655   2.742 -0.4262  0.2321  0.7714
  275SOL    HW2  867   5.479   5.575   2.859 -1.1882 -0.2289  0.1140
  276SOL     OW  868   4.770   5.656   2.586  0.0423  0.2638  0.0833
  276SOL    HW1  869   4.688   5.686   2.547 -0.3310  0.0100  0.6516
  276SOL    HW2  870   4.828   5.732   2.584 -0.0164  0.2959 -0.8190
  277SOL     OW  871   5.876   5.822   2.514 -0.9039 -0.3430  0.5060
  277SOL    HW1  872   5.902   5.737   2.478 -0.8289 -0.4367  0.7793
  277SOL    HW2  873   5.781   5.818   2.520 -0.8294 -0.8355  1.5619
  278SOL     OW  874   5.212   4.671   1.860  0.0183  0.7118 -0.1752
  278SOL    HW1  875   5.244   4.748   1.906 -1.5229  0.6050  1.1821
  278SOL    HW2  876   5.197   4.606   1.930 -0.7470 -0.0545 -1.0167
  279SOL     OW  877   2.303   2.381   0.602  0.0307  0.3066 -0.3911
  279SOL    HW1  878   2.359   2.376   0.524  0.1515  1.4184 -0.3967
  279SOL    HW2  879   2.219   2.411   0.568 -0.4961 -1.0753 -0.3404
  280SOL     OW  880   4.786   4.547   2.859 -0.0626  0.0096  0.6421
  280SOL    HW1  881   4.836   4.534   2.939  0.9501 -1.1930 -0.1476
  280SOL    HW2  882   4.744   4.632   2.871  1.2993  0.5627  1.7978
  281SOL     OW  883   5.196   4.792   2.364 -0.0586  0.1466 -0.4722
  281SOL    HW1  884   5.117   4.747   2.394 -0.8668  0.9287 -1.3524
  281SOL    HW2  885   5.176   4.885   2.375  1.4832  0.3583  1.0861
  282SOL     OW  886   5.637   4.340   2.475  0.5358 -0.2554  0.3307
  282SOL    HW1  887   5.608   4.386   2.395  1.2239 -2.9369 -1.5933
  282SOL    HW2  888   5.610   4.398   2.546 -0.3848  2.1595 -1.7953
  283SOL     OW  889   5.566   4.967   2.556 -0.3608 -0.3726 -0.3517
  283SOL    HW1  890   5.546   4.907   2.485  1.9678 -1.8319  0.1485
  283SOL    HW2  891   5.602   4.912   2.625  0.0825  1.3689  0.8743
  284SOL     OW  892   3.580   3.230   0.050  0.2529  0.1133 -0.1560
  284SOL    HW1  893   3.652   3.247  -0.010 -0.6293 -0.5296 -1.4418
  284SOL    HW2  894   3.502   3.261   0.004 -0.5073 -0.8432  0.4314
  285SOL     OW  895   2.483   5.192   2.272  0.5653 -0.4307 -0.1531
  285SOL    HW1  896   2.517   5.144   2.348  1.3575 -0.0919 -0.2861
  285SOL    HW2  897   2.425   5.130   2.229  0.0003 -0.5897  0.7992
  286SOL     OW  898   4.776   5.510   1.798  0.1025 -0.1557 -0.5185
  286SOL    HW1  899   4.755   5.498   1.705 -2.2714 -1.1105  0.0824
  286SOL    HW2  900   4.820   5.595   1.802 -3.4526  1.9385 -2.0266
  287SOL     OW  901   6.078   5.740   2.884  0.1400 -0.3029 -0.4027
  287SOL    HW1  902   6.103   5.708   2.797  1.1203  0.7796 -0.5407
  287SOL    HW2  903   5.983   5.739   2.883 -0.1082  3.4933 -3.0518
  288SOL     OW  904   5.720   4.822   1.989  0.5635 -0.1715 -0.0014
  288SOL    HW1  905   5.647   4.779   2.035 -0.4577 -1.1159 -2.3564
  288SOL    HW2  906   5.679   4.865   1.914  2.1391  1.4956  0.0230
  289SOL     OW  907   5.107   4.609   2.105 -0.0693 -0.1824 -0.0033
  289SOL    HW1  908   5.096   4.676   2.172 -1.4217 -0.2310 -0.1515
  289SOL    HW2  909   5.042   4.631   2.038  2.2011  0.7420 -2.0692
  290SOL     OW  910   3.287   3.871   0.123 -0.0807 -0.0125  0.1451
  290SOL    HW1  911   3.203   3.831   0.098 -1.5349  1.1396  2.7574
  290SOL    HW2  912   3.315   3.821   0.200  1.5761 -0.2392 -0.5624
  291SOL     OW  913   5.419   6.029   2.687 -0.1106  0.3101  0.5465
  291SOL    HW1  914   5.446   6.067   2.603 -0.1176  1.3725  1.0149
  291SOL    HW2  915   5.324   6.029   2.683 -0.1296  1.1343  0.8849
  292SOL     OW  916   3.848   3.039   0.007 -0.0872  0.2803  0.1738
  292SOL    HW1  917   3.912   2.993   0.063 -0.9389 -0.9105  0.2069
  292SOL    HW2  918   3.868   3.131   0.019  0.5480 -0.0045  1.5088
  293SOL     OW  919   5.439   4.688   2.996  0.1769 -0.0097 -0.5266
  293SOL    HW1  920   5.422   4.730   3.080 -0.3819  0.6299 -0.9486
  293SOL    HW2  921   5.501   4.746   2.952 -0.5929  0.4039 -1.1090
  294SOL     OW  922   4.800   5.373   2.430 -0.5947 -0.2280 -0.0975
  294SOL    HW1  923   4.797   5.410   2.518 -0.5971 -1.4207  0.4221
  294SOL    HW2  924   4.891   5.345   2.419 -0.4488  0.4696 -0.7179
  295SOL     OW  925   2.630   2.876   0.023 -0.2508 -0.0488 -0.7909
  295SOL    HW1  926   2.588   2.943  -0.031 -0.5830 -1.2416 -2.0528
  295SOL    HW2  927   2.719   2.870  -0.010 -0.1866 -0.1640 -0.6004
  296SOL     OW  928   5.640   4.620   2.763  0.0256 -0.0215 -0.4535
  296SOL    HW1  929   5.652   4.713   2.784 -1.9200  0.8996 -2.9859
  296SOL    HW2  930   5.721   4.595   2.719 -0.1369  1.0373 -1.4107
  297SOL     OW  931   1.912   3.629   0.418 -0.8414  0.0514  0.6133
  297SOL    HW1  932   1.887   3.584   0.499 -0.6560 -0.1726  0.5475
  297SOL    HW2  933   2.005   3.608   0.407 -0.5737  1.0091  0.9382
  298SOL     OW  934   4.576   5.792   2.465 -0.0185  0.3902 -0.2848
  298SOL    HW1  935   4.533   5.849   2.529  0.3251  1.0788 -0.6610
  298SOL    HW2  936   4.508   5.774   2.400 -1.2970 -2.6706  1.6768
  299SOL     OW  937   4.945   5.204   2.844 -0.1327  0.2821 -0.4864
  299SOL    HW1  938   5.026   5.186   2.798  0.3082 -0.2151  0.4599
  299SOL    HW2  939   4.923   5.294   2.820  0.8340  0.5076 -0.5536
  300SOL     OW  940   5.596   5.485   2.004 -0.3038 -0.2113 -0.6171
  300SOL    HW1  941   5.578   5.567   1.958 -0.8151 -0.7871 -1.4778
  300SOL    HW2  942   5.533   5.483   2.075 -2.7092 -1.4174 -2.6117
  301SOL     OW  943   3.350   3.536  -0.002 -0.3376  0.4176 -0.0338
  301SOL    HW1  944   3.298   3.591  -0.060 -2.8219  0.4598  2.0309
  301SOL    HW2  945   3.287   3.504   0.063  2.1554  0.0210  2.3634
  302SOL     OW  946   6.086   5.295   2.737  0.0876 -0.1399 -0.2111
  302SOL    HW1  947   6.070   5.387   2.761  0.5006  0.1077 -0.8534
  302SOL    HW2  948   6.082   5.294   2.641 -0.0561 -0.8232 -0.2038
  303SOL     OW  949   4.718   5.906   2.895  0.4724  0.5198 -0.2547
  303SOL    HW1  950   4.694   5.814   2.901 -1.2100  0.8347 -1.5515
  303SOL    HW2  951   4.757   5.926   2.980  1.4504 -1.5191 -0.1617
  304SOL     OW  952   2.340   3.458   0.048  0.0628  0.1804  0.1511
  304SOL    HW1  953   2.394   3.436   0.124  0.2636  4.3320  1.4768
  304SOL    HW2  954   2.401   3.459  -0.026  0.7166  0.0040  0.6793
  305SOL     OW  955   5.455   5.087   2.840  0.2497  0.0929 -0.7270
  305SOL    HW1  956   5.442   4.998   2.809  0.4078  0.0071 -0.5512
  305SOL    HW2  957   5.482   5.077   2.932  0.3429  0.3164 -0.7285
  306SOL     OW  958   5.382   5.029   1.795  0.2801  0.2943 -0.3222
  306SOL    HW1  959   5.468   5.031   1.753 -0.0145  0.6549 -0.9237
  306SOL    HW2  960   5.328   4.976   1.736 -0.0327  0.4721 -0.1965
  307SOL     OW  961   2.087   2.567   0.076  0.3200 -0.4458  0.2603
  307SOL    HW1  962   2.025   2.599   0.011  2.0201 -0.0836 -1.2757
  307SOL    HW2  963   2.111   2.480   0.045  1.4114 -0.1281  0.1613
  308SOL     OW  964   4.281   5.749   3.016  0.1564 -0.4975 -0.1693
  308SOL    HW1  965   4.368   5.711   3.024  0.3447 -0.0024  0.1407
  308SOL    HW2  966   4.235   5.691   2.955  0.9090 -0.4021 -0.8395
  309SOL     OW  967   5.163   5.105   2.731  0.5276 -0.2652  0.5740
  309SOL    HW1  968   5.248   5.077   2.765  1.1618  1.9686  1.0170
  309SOL    HW2  969   5.144   5.044   2.660  2.4295 -0.9269  0.5720
  310SOL     OW  970   4.611   4.244   2.676  0.0259  0.1384 -0.5524
  310SOL    HW1  971   4.555   4.236   2.753 -0.9266  0.7032 -1.1584
  310SOL    HW2  972   4.700   4.235   2.710 -0.3986 -0.1983  0.5245
  311SOL     OW  973   1.912   4.758   2.141  0.8101 -0.1900  0.0890
  311SOL    HW1  974   2.000   4.794   2.153  0.5467  0.8625 -0.8788
  311SOL    HW2  975   1.864   4.784   2.220  1.3339 -0.6640  0.5654
  312SOL     OW  976   5.314   5.431   2.611  0.2810  0.0227  0.3067
  312SOL    HW1  977   5.361   5.349   2.618 -0.7485 -0.5731  0.4381
  312SOL    HW2  978   5.361   5.492   2.668  1.7905 -0.1005 -0.7519
  313SOL     OW  979   1.370   5.038   1.783 -0.4944  0.1429 -0.1218
  313SOL    HW1  980   1.408   5.099   1.721  0.2559 -1.2520 -1.1016
  313SOL    HW2  981   1.330   5.093   1.851  0.7967  1.6803 -0.5583
  314SOL     OW  982   5.595   5.050   2.204 -0.1751 -0.4715  0.2460
  314SOL    HW1  983   5.528   4.983   2.190  0.0275 -0.4282 -1.0018
  314SOL    HW2  984   5.600   5.097   2.121  1.2368 -0.3235  0.3885
  315SOL     OW  985   5.816   5.363   2.682 -0.5173 -0.1625 -0.3383
  315SOL    HW1  986   5.819   5.410   2.599 -1.0033  0.0465 -0.2423
  315SOL    HW2  987   5.749   5.295   2.668  0.0150 -0.6818 -0.4022
  316SOL     OW  988   2.332   3.149   0.229  0.0013  0.3722 -0.1074
  316SOL    HW1  989   2.426   3.160   0.218 -0.1481  1.2702 -0.5537
  316SOL    HW2  990   2.295   3.168   0.142 -0.7582  2.0814  0.5551
  317SOL     OW  991   2.512   2.732   0.252  0.3053  0.1049  0.2820
  317SOL    HW1  992   2.421   2.762   0.249  0.6839  1.5243  1.6116
  317SOL    HW2  993   2.554   2.775   0.177 -0.1323 -0.7057 -0.4499
  318SOL     OW  994   3.353   2.002   0.473 -0.2221 -0.0857 -0.4017
  318SOL    HW1  995   3.298   1.975   0.547 -0.8775  0.5627 -0.6381
  318SOL    HW2  996   3.319   2.088   0.449 -0.7514 -0.7502 -2.1582
  319SOL     OW  997   4.194   1.313   1.700  0.1180 -0.2280 -0.2059
  319SOL    HW1  998   4.132   1.379   1.668 -0.8366 -0.7245  0.5659
  319SOL    HW2  999   4.147   1.230   1.690  0.5410 -0.5830  0.6672
  320SOL     OW 1000   4.151   5.961   2.797 -0.1577 -0.3339  0.6854
  320SOL    HW1 1001   4.136   6.029   2.731  0.3315 -1.0746 -0.2099
  320SOL    HW2 1002   4.243   5.969   2.820  0.1911 -1.4325 -0.2830
  321SOL     OW 1003   4.920   5.885   2.547  0.0794 -0.2371  0.5208
  321SOL    HW1 1004   5.008   5.878   2.585 -0.5294 -1.5420  1.8000
  321SOL    HW2 1005   4.935   5.897   2.453  1.6191  1.4392  0.9458
  322SOL     OW 1006   3.215   3.079   0.170 -0.5190  0.2030 -0.0348
  322SOL    HW1 1007   3.235   3.013   0.104 -1.3414 -1.1753  1.0417
  322SOL    HW2 1008   3.187   3.156   0.119  0.1328 -0.3675 -1.2984
  323SOL     OW 1009   2.338   2.725   0.563  0.3706  0.0531  0.2306
  323SOL    HW1 1010   2.387   2.692   0.487  1.1634  0.4245  0.5726
  323SOL    HW2 1011   2.378   2.681   0.638 -0.8621 -0.8308  0.3842
  324SOL     OW 1012   5.138   5.074   2.449  0.1251  0.2125  0.1155
  324SOL    HW1 1013   5.054   5.091   2.493  1.1122  0.3032  2.0628
  324SOL    HW2 1014   5.200   5.134   2.491  1.1297  0.3631 -1.5029
  325SOL     OW 1015   5.714   4.879   2.834 -0.2410 -0.5186 -0.2278
  325SOL    HW1 1016   5.810   4.870   2.840 -0.2832 -0.4639  0.6052
  325SOL    HW2 1017   5.693   4.952   2.892 -1.0352 -2.0953  1.5833
  326SOL     OW 1018   5.087   4.976   3.027 -0.1553 -0.0007  0.0288
  326SOL    HW1 1019   5.089   4.899   2.970  0.0767  0.2497 -0.3042
  326SOL    HW2 1020   5.113   5.048   2.971  0.3219  0.2128  0.5147
  327SOL     OW 1021   5.110   5.902   3.002 -0.2857  0.9282  0.2713
  327SOL    HW1 1022   5.097   5.910   3.097  1.3361  1.5486  0.4835
  327SOL    HW2 1023   5.053   5.967   2.964  1.9715  3.5828  1.1168
  328SOL     OW 1024   4.885   4.659   1.968 -0.2256 -0.4135 -0.0579
  328SOL    HW1 1025   4.846   4.740   1.933  2.0472  1.0179  0.5171
  328SOL    HW2 1026   4.821   4.629   2.034 -1.3817  0.5870 -0.6787
  329SOL     OW 1027   2.110   3.295   0.305  0.0990  0.2676 -0.3056
  329SOL    HW1 1028   2.167   3.223   0.276 -0.4421  0.2326 -1.3347
  329SOL    HW2 1029   2.059   3.317   0.228 -1.6207 -0.0088  0.7111
  330SOL     OW 1030   5.327   5.363   2.948  0.0181 -0.8238 -0.2141
  330SOL    HW1 1031   5.273   5.388   3.023  0.2441  0.6646 -0.5102
  330SOL    HW2 1032   5.272   5.381   2.872  0.4306 -0.5963 -0.4636
  331SOL     OW 1033   1.653   5.273   2.042 -0.2154  0.4647  0.2283
  331SOL    HW1 1034   1.592   5.329   2.091 -0.6355 -0.5489  0.8980
  331SOL    HW2 1035   1.651   5.189   2.088  2.8697  0.8117  1.2273
  332SOL     OW 1036   4.492   3.243   0.538 -0.1303 -0.3555 -0.4250
  332SOL    HW1 1037   4.404   3.282   0.538 -0.8162 -1.6680  2.2638
  332SOL    HW2 1038   4.543   3.300   0.595  0.2183 -0.6361 -0.4554
  333SOL     OW 1039   5.795   5.786   2.877 -0.4301 -0.0086  0.1007
  333SOL    HW1 1040   5.722   5.808   2.819 -0.5882 -0.5310  0.1024
  333SOL    HW2 1041   5.779   5.838   2.956  0.0119  1.0325 -0.4690
  334SOL     OW 1042   4.407   5.916   2.634  0.5431  0.2143 -0.2882
  334SOL    HW1 1043   4.314   5.896   2.624  0.8386 -0.9983 -0.8376
  334SOL    HW2 1044   4.415   5.954   2.721 -0.2984 -0.8337  0.2584
  335SOL     OW 1045   1.762   4.594   2.486 -0.5372 -0.2475 -0.1550
  335SOL    HW1 1046   1.850   4.566   2.460 -1.5527 -2.6280 -1.3702
  335SOL    HW2 1047   1.750   4.678   2.443  0.1295 -1.2429 -2.4754
  336SOL     OW 1048   1.623   1.726   2.114 -0.9165 -0.3268 -0.1297
  336SOL    HW1 1049   1.715   1.701   2.108 -0.3982  1.1778  1.0180
  336SOL    HW2 1050   1.575   1.647   2.088  0.6689 -1.4213  0.1405
  337SOL     OW 1051   5.825   5.114   2.381  0.3648 -0.1021  0.0193
  337SOL    HW1 1052   5.829   5.038   2.439 -1.5432  0.9700  1.6867
  337SOL    HW2 1053   5.736   5.113   2.346  0.8460  0.4516 -1.3108
  338SOL     OW 1054   3.002   3.721   0.246 -0.1879 -0.2245 -0.2953
  338SOL    HW1 1055   2.963   3.708   0.332 -0.0780  0.1650 -0.1849
  338SOL    HW2 1056   3.022   3.815   0.242 -0.2458 -0.2272 -0.7662
  339SOL     OW 1057   5.079   5.411   2.223 -0.0451  0.2569  0.0563
  339SOL    HW1 1058   5.012   5.368   2.169 -0.9991  2.6924 -0.8137
  339SOL    HW2 1059   5.059   5.383   2.313 -1.1029 -0.4393 -0.3789
  340SOL     OW 1060   3.603   3.569   0.115 -0.8334 -0.0017 -0.0001
  340SOL    HW1 1061   3.519   3.565   0.070 -0.3508  0.4218 -0.9744
  340SOL    HW2 1062   3.607   3.657   0.152 -0.7888  0.0058 -0.0221
  341SOL     OW 1063   6.237   4.340   2.815  0.1758  0.2719 -0.2689
  341SOL    HW1 1064   6.318   4.327   2.767 -0.2721  1.8432 -1.5329
  341SOL    HW2 1065   6.170   4.350   2.748 -0.5596  2.0094  0.6527
  342SOL     OW 1066   4.911   4.726   2.423 -0.2280 -0.3538  0.2793
  342SOL    HW1 1067   4.850   4.688   2.360  0.0104  0.2274 -0.3266
  342SOL    HW2 1068   4.859   4.790   2.472 -0.8016 -1.8892  1.7756
  343SOL     OW 1069   5.285   5.666   2.422  0.9241  0.2926  0.5406
  343SOL    HW1 1070   5.261   5.659   2.330 -0.3472  0.6093  0.8266
  343SOL    HW2 1071   5.268   5.579   2.458 -0.0033  0.5658  0.7824
  344SOL     OW 1072   3.139   3.500   0.155 -0.1696 -0.0340 -0.3649
  344SOL    HW1 1073   3.092   3.576   0.189  0.4588  0.0264  0.3944
  344SOL    HW2 1074   3.070   3.435   0.138 -0.6859  0.6143 -0.8058
  345SOL     OW 1075   4.885   5.210   2.059  0.0078  0.4267 -0.3830
  345SOL    HW1 1076   4.897   5.240   1.969  1.4831 -0.0447 -0.3745
  345SOL    HW2 1077   4.838   5.127   2.051  0.2214  0.3352 -0.7281
  346SOL     OW 1078   1.577   1.452   2.061 -0.6147 -0.2389  0.1681
  346SOL    HW1 1079   1.602   1.464   1.970  0.3770 -1.0447  0.3141
  346SOL    HW2 1080   1.657   1.420   2.104  0.2461  4.0135  2.2475
  347SOL     OW 1081   2.174   3.555   0.398 -0.2288 -0.0357 -0.6370
  347SOL    HW1 1082   2.169   3.464   0.370 -0.3514 -0.5256  0.8928
  347SOL    HW2 1083   2.267   3.578   0.387  0.2549 -1.0477  0.9684
  348SOL     OW 1084   6.128   5.471   3.070 -0.4407  0.4036  0.6842
  348SOL    HW1 1085   6.064   5.476   2.999  1.2919  1.6150 -0.9296
  348SOL    HW2 1086   6.090   5.521   3.141 -1.9068 -0.1760  0.3389
  349SOL     OW 1087   5.517   5.236   2.622 -0.0544  0.4072  0.0473
  349SOL    HW1 1088   5.507   5.214   2.714  2.2264  1.2285  0.5586
  349SOL    HW2 1089   5.517   5.151   2.577  0.2793 -0.1018  0.9810
  350SOL     OW 1090   5.107   4.741   2.860 -0.5964  0.4308  0.2082
  350SOL    HW1 1091   5.125   4.681   2.932  0.3614  0.9378  0.4100
  350SOL    HW2 1092   5.046   4.694   2.803  2.5125 -2.1166 -1.3436
  351SOL     OW 1093   5.577   5.693   2.442 -0.1864  0.6330  0.2864
  351SOL    HW1 1094   5.600   5.601   2.433 -0.2801  0.7688 -1.8873
  351SOL    HW2 1095   5.481   5.692   2.450 -0.2032  0.5378  0.0932
  352SOL     OW 1096   5.907   4.596   2.673  0.1468  0.6119 -0.5725
  352SOL    HW1 1097   5.975   4.565   2.614 -1.2509  0.1789 -2.0491
  352SOL    HW2 1098   5.942   4.676   2.711  1.7100  0.0609 -0.8147
  353SOL     OW 1099   4.392   1.630   1.667 -0.0836 -0.4650  0.3112
  353SOL    HW1 1100   4.376   1.723   1.680 -0.4505 -0.7574  2.2393
  353SOL    HW2 1101   4.475   1.614   1.712 -0.0514 -1.0744  0.0409
  354SOL     OW 1102   2.649   2.251   0.358 -0.6573 -0.0564 -0.3450
  354SOL    HW1 1103   2.629   2.164   0.393  0.1851  0.1210  0.6279
  354SOL    HW2 1104   2.723   2.281   0.411 -0.9907  1.2901 -0.6156
  355SOL     OW 1105   4.403   4.518   2.020  0.7462  0.1483  0.7426
  355SOL    HW1 1106   4.478   4.512   1.961 -0.2491  0.4207 -0.5720
  355SOL    HW2 1107   4.383   4.427   2.042  1.3905  0.0679  1.0387
  356SOL     OW 1108   3.794   3.228   0.364 -0.6045 -0.1671  0.0558
  356SOL    HW1 1109   3.709   3.188   0.348 -0.7380 -0.1445  0.6747
  356SOL    HW2 1110   3.802   3.297   0.299 -1.7890  0.9361  1.0310
  357SOL     OW 1111   4.740   4.601   2.254  0.0284 -0.4089  0.2854
  357SOL    HW1 1112   4.785   4.519   2.273  1.5829  0.8180  2.4347
  357SOL    HW2 1113   4.647   4.581   2.268  0.3246 -1.9061  0.2807
  358SOL     OW 1114   5.326   5.679   2.139  0.3840  0.6211  0.4785
  358SOL    HW1 1115   5.415   5.711   2.125  1.2930 -1.6888  0.5601
  358SOL    HW2 1116   5.273   5.725   2.075  1.8806  1.0826 -0.4647
  359SOL     OW 1117   2.936   3.073   0.250  0.5747  0.7188 -0.2603
  359SOL    HW1 1118   2.909   3.010   0.317  0.3949  1.4970  0.4193
  359SOL    HW2 1119   3.017   3.037   0.214 -0.2791 -0.6234 -0.9013
  360SOL     OW 1120   5.805   1.880   2.647  0.5753 -0.0683  0.0321
  360SOL    HW1 1121   5.853   1.924   2.578  0.1172 -1.5142 -1.2685
  360SOL    HW2 1122   5.858   1.802   2.667 -0.5721 -1.0314 -0.5557
  361SOL     OW 1123   5.966   5.075   2.814 -0.8393  0.4423 -0.1024
  361SOL    HW1 1124   5.973   5.087   2.908 -0.8904  1.1663 -0.1868
  361SOL    HW2 1125   6.016   5.147   2.776 -2.3021  1.2341 -0.6342
  362SOL     OW 1126   5.876   4.875   2.208  0.2052  0.2490  0.0850
  362SOL    HW1 1127   5.844   4.831   2.129  0.9960  0.8339 -0.5832
  362SOL    HW2 1128   5.826   4.955   2.214  1.1371  0.9067 -0.6601
  363SOL     OW 1129   4.662   5.267   2.990  0.5821  0.0657  0.1686
  363SOL    HW1 1130   4.569   5.274   3.010  0.7335  0.1320  0.8761
  363SOL    HW2 1131   4.665   5.245   2.897 -0.1544 -1.0552  0.3988
  364SOL     OW 1132   3.942   3.007   0.420  0.7731  0.2851 -0.2708
  364SOL    HW1 1133   4.032   3.024   0.393  0.7267  0.1445 -0.5203
  364SOL    HW2 1134   3.896   3.089   0.403  0.3403 -0.3144 -2.3535
  365SOL     OW 1135   5.410   5.404   2.196 -0.0531  0.0471  0.2212
  365SOL    HW1 1136   5.362   5.363   2.123  2.7071 -0.7731 -1.3021
  365SOL    HW2 1137   5.374   5.492   2.202 -1.2002 -0.2680 -1.3366
  366SOL     OW 1138   5.151   6.081   2.565 -0.6678 -0.5307  0.2395
  366SOL    HW1 1139   5.201   6.073   2.484 -0.2211 -1.1093  0.5583
  366SOL    HW2 1140   5.061   6.097   2.537 -0.7009 -1.7347 -0.3973
  367SOL     OW 1141   2.959   3.294   0.119 -0.2434  0.2530  0.5503
  367SOL    HW1 1142   2.891   3.313   0.054 -0.0080 -0.9096 -0.0576
  367SOL    HW2 1143   2.919   3.228   0.175  0.2094 -0.0649  0.4961
  368SOL     OW 1144   5.399   5.281   1.513  0.2725 -0.7590  0.5472
  368SOL    HW1 1145   5.304   5.277   1.504  0.2341 -0.2577  0.6636
  368SOL    HW2 1146   5.432   5.210   1.458 -0.2406 -2.1813  2.0005
  369SOL     OW 1147   5.957   5.986   2.714  0.7727 -0.1217 -0.3322
  369SOL    HW1 1148   6.044   5.945   2.722  1.1947  1.0134  1.4536
  369SOL    HW2 1149   5.910   5.928   2.655  2.3404 -1.4811 -0.3557
  370SOL     OW 1150   4.095   5.599   2.017  0.2306 -0.0349  0.0964
  370SOL    HW1 1151   3.999   5.594   2.010  0.0139  3.6190 -3.5709
  370SOL    HW2 1152   4.126   5.560   1.935  1.7445  0.3507  0.4650
  371SOL     OW 1153   6.095   4.274   3.020  0.0118 -0.2675 -0.0497
  371SOL    HW1 1154   6.151   4.291   2.944  0.3003 -0.2575  0.1687
  371SOL    HW2 1155   6.067   4.360   3.049 -0.4285 -0.2871 -0.3903
  372SOL     OW 1156   4.658   4.592   2.589  0.2778  0.2853  0.8969
  372SOL    HW1 1157   4.676   4.545   2.671 -0.2825  0.0812  0.9130
  372SOL    HW2 1158   4.637   4.523   2.526 -1.2323  0.5194  1.0957
  373SOL     OW 1159   6.384   5.370   3.044  0.5049 -0.0920  0.4725
  373SOL    HW1 1160   6.293   5.398   3.053  0.4800  0.8254 -1.7936
  373SOL    HW2 1161   6.381   5.301   2.977  1.6135  1.2326 -1.0293
  374SOL     OW 1162   2.686   2.665   0.466 -0.2269  0.5982 -0.1281
  374SOL    HW1 1163   2.764   2.711   0.434  0.6994 -2.2731 -2.4453
  374SOL    HW2 1164   2.618   2.686   0.403 -0.4042  0.5199  0.0375
  375SOL     OW 1165   5.605   5.817   2.689  0.1605 -0.0388  0.0254
  375SOL    HW1 1166   5.592   5.779   2.602 -1.3521 -0.2728  0.3197
  375SOL    HW2 1167   5.541   5.888   2.693 -0.4463 -0.6214  1.2720
  376SOL     OW 1168   6.041   4.350   2.590  0.5024  0.1367  0.2312
  376SOL    HW1 1169   6.090   4.412   2.536  1.1707 -1.1881 -0.7375
  376SOL    HW2 1170   5.979   4.309   2.530 -0.8002  0.7127  1.1300
  377SOL     OW 1171   5.171   4.458   2.758  0.3825  0.4434  0.6493
  377SOL    HW1 1172   5.258   4.476   2.720 -0.3704  0.2848 -1.2438
  377SOL    HW2 1173   5.185   4.464   2.852  2.7183 -0.7700  0.4492
  378SOL     OW 1174   5.594   5.402   2.400 -0.1684  0.5646 -0.4782
  378SOL    HW1 1175   5.525   5.382   2.337  0.8328 -2.7296 -0.7240
  378SOL    HW2 1176   5.568   5.355   2.480  0.7636  1.0079  0.1059
  379SOL     OW 1177   2.500   3.921   0.323 -0.3090 -0.2673  0.4538
  379SOL    HW1 1178   2.430   3.966   0.370  0.3074 -0.6210  1.7819
  379SOL    HW2 1179   2.578   3.938   0.376  0.0621 -2.3296  0.6516
  380SOL     OW 1180   5.492   4.685   1.759  0.4682  0.2870 -0.0582
  380SOL    HW1 1181   5.514   4.592   1.760 -0.3466  0.0762  1.0119
  380SOL    HW2 1182   5.396   4.686   1.757  0.3528  1.0305  2.2855
  381SOL     OW 1183   1.779   5.189   2.447 -0.5131 -0.4549  0.2311
  381SOL    HW1 1184   1.805   5.210   2.357 -1.0945 -0.5930  0.0275
  381SOL    HW2 1185   1.687   5.163   2.440 -0.3330 -1.2581  0.7477
  382SOL     OW 1186   1.970   4.772   2.774  0.0705 -0.0554 -0.0736
  382SOL    HW1 1187   2.030   4.699   2.763 -0.0347  0.0516 -1.4553
  382SOL    HW2 1188   1.987   4.830   2.700 -0.8362  0.6222  0.2229
  383SOL     OW 1189   4.108   5.311   1.969 -0.2669  0.1019 -0.1751
  383SOL    HW1 1190   4.095   5.294   2.062  0.1115 -2.2698 -0.4715
  383SOL    HW2 1191   4.198   5.344   1.963 -0.5095  0.8804  0.3452
  384SOL     OW 1192   5.527   1.768   2.436  0.4065 -0.0406 -0.1599
  384SOL    HW1 1193   5.611   1.729   2.412  0.3851  0.7212 -1.6255
  384SOL    HW2 1194   5.544   1.862   2.438 -0.2889  0.0865  0.0275
  385SOL     OW 1195   4.604   2.567   0.632 -0.3430 -0.0669  0.2179
  385SOL    HW1 1196   4.534   2.550   0.568  0.1946 -3.8458  0.4323
  385SOL    HW2 1197   4.589   2.657   0.660 -2.5034  0.6937 -2.8886
  386SOL     OW 1198   4.556   2.002   0.837  0.0279  0.3719 -0.7920
  386SOL    HW1 1199   4.589   2.092   0.828 -0.5100  0.6550 -0.0173
  386SOL    HW2 1200   4.634   1.950   0.857  0.0668  0.9944  0.7920
  387SOL     OW 1201   4.638   2.262   0.735  0.1294  0.3283  0.1431
  387SOL    HW1 1202   4.697   2.329   0.769  1.1231  0.4445 -1.6374
  387SOL    HW2 1203   4.585   2.307   0.670  1.5056 -0.7060 -1.8293
  388SOL     OW 1204   4.274   2.994   1.011 -0.1094  0.1530 -0.7913
  388SOL    HW1 1205   4.259   2.955   0.925  0.8289 -0.9951 -0.4696
  388SOL    HW2 1206   4.350   2.947   1.045  0.0978  1.2267  0.2852
  389SOL     OW 1207   1.511   2.877   1.037  0.0642 -0.0607  0.5336
  389SOL    HW1 1208   1.537   2.916   0.953 -1.6649  0.7472  0.3155
  389SOL    HW2 1209   1.567   2.920   1.102  1.9922 -1.2809 -0.2236
  390SOL     OW 1210   1.279   2.442   0.787 -0.2597  0.0850  0.1275
  390SOL    HW1 1211   1.348   2.467   0.848 -0.7174 -0.3232  0.8267
  390SOL    HW2 1212   1.276   2.513   0.724  0.3788  0.4043  0.4494
  391SOL     OW 1213   2.000   2.954   0.263  0.5555 -0.1622  0.1303
  391SOL    HW1 1214   1.996   3.027   0.324  0.5425 -0.5562  0.6041
  391SOL    HW2 1215   1.914   2.913   0.269  0.9904 -0.9904  0.8304
  392SOL     OW 1216   4.820   3.334   0.930 -0.4966 -0.0876 -0.2493
  392SOL    HW1 1217   4.778   3.287   1.002  0.0135  2.3655  1.8072
  392SOL    HW2 1218   4.913   3.328   0.949 -0.3385  0.3320 -0.8708
  393SOL     OW 1219   1.209   2.640   1.620 -0.1097  0.3371  0.5242
  393SOL    HW1 1220   1.166   2.725   1.624 -0.3516  0.1825  2.0016
  393SOL    HW2 1221   1.200   2.613   1.529 -0.8613  1.4708  0.2338
  394SOL     OW 1222   0.874   3.321   0.009  0.4288  0.0678  0.1496
  394SOL    HW1 1223   0.840   3.410   0.026  2.3630  0.7859  0.4631
  394SOL    HW2 1224   0.804   3.263   0.039 -2.1003  1.4262 -2.5236
  395SOL     OW 1225   5.107   3.262   2.007  0.1657 -0.1489 -0.2204
  395SOL    HW1 1226   5.024   3.222   2.033 -0.4507  0.9611 -0.3997
  395SOL    HW2 1227   5.122   3.230   1.918  0.0773 -0.5754 -0.0848
  396SOL     OW 1228   4.624   3.006   0.402  0.3438  0.1174 -0.3181
  396SOL    HW1 1229   4.718   3.014   0.419  0.0932  0.2771  1.0950
  396SOL    HW2 1230   4.585   3.081   0.446 -0.6719 -1.2253  1.1764
  397SOL     OW 1231   1.427   3.595   1.610  0.5086 -0.2349  0.0473
  397SOL    HW1 1232   1.451   3.503   1.606 -0.9936 -0.6329 -0.3446
  397SOL    HW2 1233   1.335   3.597   1.584  0.1405  1.2204  1.3289
  398SOL     OW 1234   4.758   2.071   1.419  0.3293 -0.8780 -0.2007
  398SOL    HW1 1235   4.748   2.118   1.502  0.1332 -1.6603  0.2300
  398SOL    HW2 1236   4.708   1.990   1.431 -0.7827 -0.4332 -1.5487
  399SOL     OW 1237   1.282   2.866   0.494  0.7573  0.2365  0.2389
  399SOL    HW1 1238   1.215   2.936   0.493  0.6195  0.1004 -0.6441
  399SOL    HW2 1239   1.336   2.884   0.417 -0.9064 -2.1639 -1.6337
  400SOL     OW 1240   0.603   3.745   0.747  0.5220  0.1866  0.6926
  400SOL    HW1 1241   0.539   3.764   0.679 -0.1282  0.1550  1.2761
  400SOL    HW2 1242   0.686   3.775   0.711 -0.1835  2.5748  0.8784
  401SOL     OW 1243   5.479   3.434   1.690 -0.1309 -0.0790  0.0600
  401SOL    HW1 1244   5.509   3.383   1.765 -1.1044  0.3205  0.7303
  401SOL    HW2 1245   5.384   3.441   1.701 -0.1033  1.3251 -0.3624
  402SOL     OW 1246   0.481   3.323   0.446 -0.0447 -0.2925 -0.2864
  402SOL    HW1 1247   0.395   3.365   0.447  0.3591  0.5647  0.7843
  402SOL    HW2 1248   0.538   3.385   0.400  0.3383 -0.1032  0.4275
  403SOL     OW 1249   4.707   2.735   0.992 -0.2258  0.0062  0.0841
  403SOL    HW1 1250   4.801   2.742   0.977  0.1276  1.0262  2.3193
  403SOL    HW2 1251   4.667   2.779   0.918  1.1283  0.8399 -0.1826
  404SOL     OW 1252   4.645   3.748   1.155 -0.3344  0.4335 -0.3961
  404SOL    HW1 1253   4.599   3.682   1.103 -1.9518  1.4250 -0.2654
  404SOL    HW2 1254   4.659   3.706   1.240 -0.7117  0.0108 -0.5393
  405SOL     OW 1255   0.632   3.066   0.454 -0.3361 -0.2680 -0.1431
  405SOL    HW1 1256   0.599   3.155   0.443 -0.7434 -0.2356  1.1543
  405SOL    HW2 1257   0.713   3.065   0.403 -0.7516  0.5808 -0.8613
  406SOL     OW 1258   1.702   1.692   1.325 -0.0172 -0.1719 -0.5378
  406SOL    HW1 1259   1.748   1.775   1.317 -0.2321  0.1134  0.9173
  406SOL    HW2 1260   1.621   1.713   1.371  0.5012 -1.3429  1.0130
  407SOL     OW 1261   0.393   2.321   0.098 -0.1640 -0.5561  0.0806
  407SOL    HW1 1262   0.389   2.282   0.186 -0.4123  0.9697  0.7749
  407SOL    HW2 1263   0.486   2.325   0.078 -0.1561 -2.1889 -0.3475
  408SOL     OW 1264   1.771   3.584   0.187  0.0237 -0.0021  0.7475
  408SOL    HW1 1265   1.803   3.665   0.147 -1.2248  0.9082  1.4833
  408SOL    HW2 1266   1.808   3.586   0.276  1.4956 -1.2056  0.1951
  409SOL     OW 1267   4.283   3.580   0.724  0.3160 -0.5133  0.0052
  409SOL    HW1 1268   4.213   3.644   0.718 -0.5849 -1.5512 -0.9734
  409SOL    HW2 1269   4.238   3.497   0.744  1.3667 -0.9982  0.4396
  410SOL     OW 1270   1.600   3.442   0.909 -0.2341 -0.0696 -0.2164
  410SOL    HW1 1271   1.510   3.465   0.932 -0.5673  0.1777 -1.7141
  410SOL    HW2 1272   1.592   3.379   0.838  0.7585 -1.8522  1.1397
  411SOL     OW 1273   1.617   3.274   0.727 -0.2570  0.2415 -0.1584
  411SOL    HW1 1274   1.629   3.210   0.798 -0.3808  1.4937  1.0371
  411SOL    HW2 1275   1.592   3.221   0.651  0.7993 -1.2364  0.4719
  412SOL     OW 1276   4.717   2.802   1.921 -0.2048  0.3349 -0.1328
  412SOL    HW1 1277   4.707   2.780   1.828  0.7368  1.3646 -0.5013
  412SOL    HW2 1278   4.811   2.809   1.934 -0.1866 -1.9783  1.4618
  413SOL     OW 1279   0.582   3.102   0.770 -0.2789 -0.6046  1.0611
  413SOL    HW1 1280   0.522   3.148   0.828  0.8448  0.2835  1.5523
  413SOL    HW2 1281   0.567   3.140   0.684  0.3498  0.4231  1.3886
  414SOL     OW 1282   1.449   2.865   1.584  0.2386 -0.0388  0.1079
  414SOL    HW1 1283   1.487   2.904   1.662 -0.9264 -0.4086  0.8806
  414SOL    HW2 1284   1.371   2.917   1.566  1.2842  1.0412 -1.7681
  415SOL     OW 1285   0.643   1.708   0.491 -0.3978 -0.0888 -0.3252
  415SOL    HW1 1286   0.641   1.774   0.421  0.2767  0.4675  0.1808
  415SOL    HW2 1287   0.621   1.756   0.570  0.4995 -0.3904  0.1122
  416SOL     OW 1288   4.639   2.633   1.693  0.4139  0.6453  0.3952
  416SOL    HW1 1289   4.678   2.702   1.641 -0.8599  2.1502  1.3474
  416SOL    HW2 1290   4.548   2.628   1.662  0.1470  0.2796  1.2091
  417SOL     OW 1291   1.694   2.885   0.432  0.5766  0.0750 -0.6378
  417SOL    HW1 1292   1.770   2.923   0.476  1.3455 -1.4149 -0.6156
  417SOL    HW2 1293   1.643   2.845   0.503  0.8907 -0.7717 -0.8776
  418SOL     OW 1294   1.498   3.914   1.332  0.0269  0.1381 -0.6635
  418SOL    HW1 1295   1.432   3.891   1.266 -1.5019  0.5770  0.6266
  418SOL    HW2 1296   1.542   3.832   1.352 -0.8861 -0.4052 -0.7938
  419SOL     OW 1297   4.729   2.158   1.751  0.6815  0.2124 -0.6950
  419SOL    HW1 1298   4.731   2.238   1.698  1.1668  0.6464 -0.0467
  419SOL    HW2 1299   4.639   2.154   1.785  0.1473 -0.4719 -2.1200
  420SOL     OW 1300   1.195   3.835   1.356 -0.0497  0.1120  0.1056
  420SOL    HW1 1301   1.179   3.755   1.406  1.9084  0.5885  1.6124
  420SOL    HW2 1302   1.239   3.805   1.277  1.2594 -0.3127  0.9582
  421SOL     OW 1303   1.472   3.741   0.641 -0.3614 -0.1688  0.0959
  421SOL    HW1 1304   1.566   3.746   0.658 -0.5589  0.7545  1.0581
  421SOL    HW2 1305   1.435   3.700   0.719 -0.8760  0.5663  0.2536
  422SOL     OW 1306   0.922   2.619   0.592  0.3784  0.0689  1.0131
  422SOL    HW1 1307   0.885   2.691   0.643  1.5267  0.2871  1.5679
  422SOL    HW2 1308   0.876   2.541   0.623 -1.1483  0.5750  0.1419
  423SOL     OW 1309   1.346   2.646   0.620  0.5346 -0.3435 -0.5664
  423SOL    HW1 1310   1.436   2.675   0.630  0.6160 -0.9570  0.6249
  423SOL    HW2 1311   1.298   2.725   0.595  1.2454  0.1745 -0.3310
  424SOL     OW 1312   1.509   3.602   0.099  0.1663 -0.2491 -0.6159
  424SOL    HW1 1313   1.463   3.633   0.178  0.4738 -0.3144 -0.4112
  424SOL    HW2 1314   1.602   3.617   0.118  0.3474 -1.5332 -0.4066
  425SOL     OW 1315   5.200   2.527   1.587 -0.2607  0.0498 -0.0592
  425SOL    HW1 1316   5.216   2.434   1.607  1.6013  0.6830  1.7111
  425SOL    HW2 1317   5.217   2.534   1.494 -1.0692 -1.4957 -0.3707
  426SOL     OW 1318   1.359   1.955   1.547 -0.1395  0.1143 -0.6613
  426SOL    HW1 1319   1.299   2.026   1.523  0.3822  0.7233 -0.1973
  426SOL    HW2 1320   1.439   1.974   1.498 -0.0256 -0.1922 -0.5926
  427SOL     OW 1321   5.141   2.810   1.598 -0.1612  0.6002  0.3259
  427SOL    HW1 1322   5.161   2.720   1.571  0.1716  0.4304  1.0874
  427SOL    HW2 1323   5.101   2.850   1.522 -0.2468 -0.1786 -0.0499
  428SOL     OW 1324   0.880   2.156   1.045  0.1429 -0.0192 -0.5326
  428SOL    HW1 1325   0.866   2.250   1.058  0.5965 -0.1190  0.8753
  428SOL    HW2 1326   0.832   2.135   0.965 -0.3479  1.3165 -0.6110
  429SOL     OW 1327   1.064   2.719   0.375 -0.4854 -0.0986 -0.3347
  429SOL    HW1 1328   1.128   2.652   0.352  1.3626  2.1750 -2.2400
  429SOL    HW2 1329   1.015   2.681   0.449  1.7676 -2.6897 -0.0316
  430SOL     OW 1330   4.420   2.283   0.547 -0.2910  0.2083 -0.1625
  430SOL    HW1 1331   4.386   2.238   0.624 -0.0413 -0.6575 -0.5490
  430SOL    HW2 1332   4.350   2.343   0.522 -0.7671 -0.1996  0.1685
  431SOL     OW 1333   4.390   3.684   1.916  0.1325 -0.1259 -0.8000
  431SOL    HW1 1334   4.375   3.623   1.844  0.9351 -0.4500 -0.7098
  431SOL    HW2 1335   4.409   3.627   1.991 -2.3048  0.1312  0.1115
  432SOL     OW 1336   3.346   4.687   2.990  0.0150  0.0017  0.2388
  432SOL    HW1 1337   3.437   4.708   3.015 -0.1114  0.9238 -0.0179
  432SOL    HW2 1338   3.293   4.746   3.043 -0.3801  0.1718 -0.3313
  433SOL     OW 1339   1.807   2.151   1.786 -0.3347 -0.6333  0.0930
  433SOL    HW1 1340   1.712   2.144   1.795 -0.4448  1.5707  1.4631
  433SOL    HW2 1341   1.841   2.075   1.832 -1.4060 -1.2651 -0.1156
  434SOL     OW 1342   1.494   2.900   0.257  0.0760  0.1176 -0.2149
  434SOL    HW1 1343   1.472   2.992   0.242 -0.0786 -0.0332 -0.9430
  434SOL    HW2 1344   1.583   2.903   0.292 -0.3358  0.6076  0.8262
  435SOL     OW 1345   4.844   2.078   0.932 -0.5413  0.0330  0.0970
  435SOL    HW1 1346   4.899   2.007   0.966 -1.0483 -0.1249  0.5965
  435SOL    HW2 1347   4.906   2.149   0.913 -0.0595 -0.4575 -0.1872
  436SOL     OW 1348   0.978   3.459   0.334 -0.0711 -0.0033 -0.0391
  436SOL    HW1 1349   0.942   3.501   0.256 -0.1287 -0.1581 -0.0986
  436SOL    HW2 1350   0.939   3.506   0.408  0.5306  0.5978 -0.1017
  437SOL     OW 1351   4.177   3.629   1.270  0.2129  0.6621  0.2661
  437SOL    HW1 1352   4.196   3.668   1.185  0.9200 -1.0153 -0.4042
  437SOL    HW2 1353   4.237   3.672   1.331  1.5261  0.1193 -0.5948
  438SOL     OW 1354   1.440   3.198   0.970  0.4567  0.4080  0.0685
  438SOL    HW1 1355   1.514   3.209   1.029  0.0318 -0.5946  0.8226
  438SOL    HW2 1356   1.409   3.287   0.953  0.5049  0.7149  1.4675
  439SOL     OW 1357   1.182   3.583   1.472  0.7411  0.4437  0.6151
  439SOL    HW1 1358   1.148   3.531   1.399  2.7205  0.8163 -0.6417
  439SOL    HW2 1359   1.177   3.524   1.548  1.0388 -0.8693 -0.3479
  440SOL     OW 1360   4.790   2.867   0.597  0.2849 -0.1257 -0.8613
  440SOL    HW1 1361   4.825   2.800   0.539 -0.5630  1.2978 -3.1507
  440SOL    HW2 1362   4.850   2.941   0.588 -1.2813  1.0754 -2.0914
  441SOL     OW 1363   1.719   3.064   0.896  0.1837  0.1319  0.1524
  441SOL    HW1 1364   1.800   3.099   0.934  0.4124 -0.2680  0.0485
  441SOL    HW2 1365   1.743   2.975   0.868 -0.3011  0.0000  0.1484
  442SOL     OW 1366   5.046   3.212   1.387 -0.7365  0.0877 -0.0955
  442SOL    HW1 1367   5.118   3.253   1.339 -0.5171  0.5890  0.6333
  442SOL    HW2 1368   4.977   3.277   1.388 -1.1352 -0.3225 -0.6298
  443SOL     OW 1369   1.276   3.738   0.211  0.2515 -0.1497 -0.3643
  443SOL    HW1 1370   1.333   3.693   0.274  1.1679  0.2842 -0.8525
  443SOL    HW2 1371   1.283   3.830   0.234  0.7355  0.0332 -1.1890
  444SOL     OW 1372   4.476   2.164   1.833  0.3713  0.0695  0.2141
  444SOL    HW1 1373   4.453   2.236   1.775  1.3804  1.5351  1.5545
  444SOL    HW2 1374   4.422   2.178   1.911  1.0694 -0.2360  0.7563
  445SOL     OW 1375   1.345   3.137   0.252  0.5921 -0.6736 -0.0508
  445SOL    HW1 1376   1.393   3.200   0.197 -0.1734 -1.2942 -1.4706
  445SOL    HW2 1377   1.253   3.160   0.240  0.3470 -1.5949  0.0317
  446SOL     OW 1378   0.814   3.626   0.478 -0.0651  0.6885 -0.3302
  446SOL    HW1 1379   0.845   3.687   0.544  2.3960  1.1110 -1.7448
  446SOL    HW2 1380   0.775   3.554   0.527  0.9011  1.3859  1.5366
  447SOL     OW 1381   1.336   2.069   0.399  0.0301 -0.0723 -0.2979
  447SOL    HW1 1382   1.428   2.085   0.418  0.6465 -1.3107 -1.9322
  447SOL    HW2 1383   1.320   1.980   0.429 -0.7031  0.2037  0.1563
  448SOL     OW 1384   4.367   3.666   1.551  0.3556 -0.7910  0.0790
  448SOL    HW1 1385   4.321   3.649   1.633  1.4158 -2.1374  0.4392
  448SOL    HW2 1386   4.421   3.588   1.538  1.4863  0.1410 -1.0268
  449SOL     OW 1387   1.216   3.913   0.640 -0.2323 -0.1621  0.4824
  449SOL    HW1 1388   1.194   3.944   0.552  0.0159  2.5216  1.2963
  449SOL    HW2 1389   1.307   3.883   0.632 -0.5566 -0.9611 -0.3904
  450SOL     OW 1390   0.467   2.576   0.440 -0.4182 -0.0953  0.2044
  450SOL    HW1 1391   0.508   2.490   0.434  0.3878  0.2825  0.0647
  450SOL    HW2 1392   0.396   2.565   0.502  0.1434 -0.6883  0.7618
  451SOL     OW 1393   1.540   1.803   1.831  0.2775 -0.0864  0.2211
  451SOL    HW1 1394   1.518   1.894   1.811 -0.0743 -0.2993 -0.4209
  451SOL    HW2 1395   1.635   1.801   1.838  0.4293  0.0412 -1.3893
  452SOL     OW 1396   2.953   4.112   3.063 -0.0818  0.4208  0.0585
  452SOL    HW1 1397   3.041   4.118   3.099 -0.1050  0.2074  0.1507
  452SOL    HW2 1398   2.949   4.026   3.022 -0.6853 -0.1342  1.2336
  453SOL     OW 1399   4.820   1.616   2.019 -0.1825  0.4786  0.6316
  453SOL    HW1 1400   4.891   1.678   2.034  0.9701 -0.7186  0.3815
  453SOL    HW2 1401   4.797   1.583   2.106 -0.0113  0.4303  0.6588
  454SOL     OW 1402   0.747   3.303   1.018  0.3169  0.5709 -0.0009
  454SOL    HW1 1403   0.800   3.319   1.095 -0.9497  1.2465  0.7697
  454SOL    HW2 1404   0.810   3.280   0.950  1.4905  0.3451  1.1222
  455SOL     OW 1405   1.185   2.603   1.347  0.3591 -0.2752 -0.1650
  455SOL    HW1 1406   1.160   2.521   1.305 -1.8201  0.8588 -1.3021
  455SOL    HW2 1407   1.241   2.647   1.282 -1.5084  0.6741 -1.2270
  456SOL     OW 1408   1.144   3.370   0.521  0.1921 -0.1464  0.0393
  456SOL    HW1 1409   1.125   3.442   0.582  1.4536 -0.6876  1.1244
  456SOL    HW2 1410   1.097   3.394   0.441 -2.0617  0.2978  1.3945
  457SOL     OW 1411   5.093   2.401   1.080  0.0956 -0.0024 -0.1292
  457SOL    HW1 1412   5.003   2.377   1.103 -0.0770 -0.9792 -1.6818
  457SOL    HW2 1413   5.086   2.492   1.052 -0.6449 -0.3961 -1.3065
  458SOL     OW 1414   0.305   1.738   0.353 -0.4174 -0.0192  0.9220
  458SOL    HW1 1415   0.313   1.674   0.423  1.0633 -0.4595  0.3987
  458SOL    HW2 1416   0.333   1.692   0.274 -0.8175  0.8270  0.2620
  459SOL     OW 1417   3.439   5.093   2.746  0.0662 -0.1392 -0.2610
  459SOL    HW1 1418   3.399   5.044   2.675  1.6449 -2.6103  0.4335
  459SOL    HW2 1419   3.442   5.032   2.819 -0.9676  2.1200  1.8156
  460SOL     OW 1420   4.165   1.852   0.164 -0.2216  0.0024 -0.3495
  460SOL    HW1 1421   4.189   1.766   0.200 -0.2385  0.1195 -0.0566
  460SOL    HW2 1422   4.163   1.838   0.069  1.1552  0.0273 -0.4017
  461SOL     OW 1423   1.081   2.253   0.428 -0.1562  0.3128 -0.0592
  461SOL    HW1 1424   1.058   2.346   0.427  0.5605  0.4969 -0.3179
  461SOL    HW2 1425   1.169   2.250   0.391 -0.0509 -0.4410  0.2325
  462SOL     OW 1426   5.054   2.905   1.364  0.1369  0.0014  0.1714
  462SOL    HW1 1427   5.011   2.991   1.364  0.7832  0.3443  0.8642
  462SOL    HW2 1428   5.120   2.912   1.294 -1.0758 -0.6258 -1.0890
  463SOL     OW 1429   1.225   3.752   0.865  1.0731  0.5029 -0.7912
  463SOL    HW1 1430   1.167   3.706   0.805  0.4140  1.0122 -0.5663
  463SOL    HW2 1431   1.198   3.844   0.857  1.0360  0.5865  0.2034
  464SOL     OW 1432   0.765   2.776   0.735 -0.1132 -0.0416  0.0874
  464SOL    HW1 1433   0.700   2.846   0.742 -0.8368 -0.4318 -1.8202
  464SOL    HW2 1434   0.749   2.720   0.812 -2.5088 -0.4473 -0.6147
  465SOL     OW 1435   1.476   4.031   0.518 -1.1302  0.1768  0.0112
  465SOL    HW1 1436   1.505   3.939   0.524 -0.8388  0.1521 -1.3923
  465SOL    HW2 1437   1.557   4.082   0.529 -1.1291  0.2347 -0.2755
  466SOL     OW 1438   1.105   2.895   0.184  0.0487 -0.5267 -0.5854
  466SOL    HW1 1439   1.133   2.984   0.207 -0.2932  0.1488 -2.5749
  466SOL    HW2 1440   1.105   2.848   0.267 -0.0632  1.4194  0.5895
  467SOL     OW 1441   4.517   2.596   1.406 -0.3891  0.2544  0.1484
  467SOL    HW1 1442   4.587   2.592   1.341 -1.4386 -0.6294 -0.9569
  467SOL    HW2 1443   4.519   2.510   1.448 -1.2193  0.0048 -0.3193
  468SOL     OW 1444   4.838   1.712   1.529  0.5796 -0.3583 -0.0796
  468SOL    HW1 1445   4.917   1.765   1.519  2.4074 -3.1255 -1.8997
  468SOL    HW2 1446   4.769   1.763   1.487  2.1199  0.7841 -1.3310
  469SOL     OW 1447   0.935   2.068   0.569  0.4334  0.1272 -0.1548
  469SOL    HW1 1448   1.029   2.077   0.587 -0.0130  0.4592  2.3032
  469SOL    HW2 1449   0.922   2.118   0.488  2.4185 -0.2240 -0.7484
  470SOL     OW 1450   0.723   1.445   0.440 -0.7856  0.2387 -0.1034
  470SOL    HW1 1451   0.669   1.517   0.470 -0.8621  0.0380  0.2391
  470SOL    HW2 1452   0.755   1.404   0.520 -0.2218  0.2850 -0.3005
  471SOL     OW 1453   1.311   3.168   1.490 -0.0780 -0.0385 -0.2866
  471SOL    HW1 1454   1.363   3.208   1.560 -1.7133  0.8671  0.4680
  471SOL    HW2 1455   1.226   3.151   1.530 -0.2479 -1.9767 -1.3379
  472SOL     OW 1456   1.295   2.710   1.043 -0.5925 -0.3518  0.1100
  472SOL    HW1 1457   1.351   2.634   1.023 -0.5055 -0.5899  1.1828
  472SOL    HW2 1458   1.355   2.784   1.045  0.1925 -0.9158  3.5062
  473SOL     OW 1459   1.856   2.338   0.319  0.1041 -0.5646 -0.4927
  473SOL    HW1 1460   1.808   2.277   0.373 -0.0880  0.9030  1.0876
  473SOL    HW2 1461   1.891   2.285   0.247 -0.9496 -2.2793  0.2074
  474SOL     OW 1462   2.676   5.682   2.751  0.1389 -0.0172 -0.7996
  474SOL    HW1 1463   2.651   5.621   2.820  0.4826 -0.3411 -0.9609
  474SOL    HW2 1464   2.629   5.651   2.673  1.5846 -1.0771 -1.2929
  475SOL     OW 1465   1.754   3.787   0.749 -0.0673  0.3064 -0.0139
  475SOL    HW1 1466   1.815   3.714   0.755 -1.1606 -0.6028  0.3695
  475SOL    HW2 1467   1.743   3.817   0.839 -0.7219  0.0025  0.0126
  476SOL     OW 1468   1.577   2.628   0.361  0.7083  0.2534  0.6890
  476SOL    HW1 1469   1.595   2.595   0.449  3.3046 -1.6740 -0.4263
  476SOL    HW2 1470   1.568   2.722   0.372 -0.1185 -0.0437  3.1288
  477SOL     OW 1471   0.794   2.191   0.245  0.2261  0.1476  0.1062
  477SOL    HW1 1472   0.781   2.139   0.165  0.1403 -0.1075  0.2861
  477SOL    HW2 1473   0.833   2.273   0.214  0.9369 -0.2659 -0.1126
  478SOL     OW 1474   1.713   2.717   1.831 -0.2578 -0.9333 -0.3502
  478SOL    HW1 1475   1.684   2.778   1.899 -0.0466 -0.6700 -0.4963
  478SOL    HW2 1476   1.664   2.637   1.849  0.3444 -1.1103  0.5674
  479SOL     OW 1477   1.922   3.600   1.853  0.4455 -0.4104  0.0752
  479SOL    HW1 1478   1.872   3.675   1.821 -0.0759 -1.4486 -1.7344
  479SOL    HW2 1479   1.857   3.542   1.891  0.6583 -0.5243  0.2701
  480SOL     OW 1480   1.083   3.092   1.225  0.0929  0.0701  0.4102
  480SOL    HW1 1481   1.052   3.183   1.230  0.7795  0.2690  1.4804
  480SOL    HW2 1482   1.156   3.094   1.164  0.5930  0.4009  1.0049
  481SOL     OW 1483   1.735   2.933   1.189  0.0200 -0.2654 -0.6485
  481SOL    HW1 1484   1.830   2.942   1.202 -0.0038 -1.1981  0.2895
  481SOL    HW2 1485   1.719   2.839   1.197 -0.7448 -0.3527 -2.6411
  482SOL     OW 1486   5.502   1.844   1.831 -0.3169 -0.1710 -0.0354
  482SOL    HW1 1487   5.559   1.906   1.878 -0.0694  0.1541 -0.7596
  482SOL    HW2 1488   5.551   1.761   1.833  0.0538  0.0341 -0.3959
  483SOL     OW 1489   5.265   3.015   1.898 -0.0349 -0.1705  0.8451
  483SOL    HW1 1490   5.314   2.951   1.846 -2.0433 -0.0881 -1.3271
  483SOL    HW2 1491   5.226   2.964   1.969 -0.8932 -1.2326 -0.3431
  484SOL     OW 1492   1.039   3.137   0.467 -0.4780  0.1905 -0.4788
  484SOL    HW1 1493   1.014   3.110   0.555  0.5722 -1.7609 -0.7114
  484SOL    HW2 1494   1.091   3.216   0.479  0.8675 -0.8377  0.8333
  485SOL     OW 1495   4.854   2.703   1.300 -0.1432 -0.1643  0.4653
  485SOL    HW1 1496   4.935   2.711   1.351  1.1513 -0.1579 -1.4928
  485SOL    HW2 1497   4.821   2.615   1.321  1.9281 -1.3352 -0.7640
  486SOL     OW 1498   1.158   2.191   0.956 -0.0156 -0.1834 -0.7021
  486SOL    HW1 1499   1.182   2.160   0.869 -1.4293 -1.3969 -0.7082
  486SOL    HW2 1500   1.078   2.143   0.977  0.1791  0.2429  1.1836
  487SOL     OW 1501   4.679   3.175   1.123 -1.2170  0.4313  0.0715
  487SOL    HW1 1502   4.604   3.177   1.183 -0.2922  1.5454  1.2208
  487SOL    HW2 1503   4.723   3.092   1.144 -0.5909  1.0663  1.3481
  488SOL     OW 1504   4.839   2.467   0.804  0.2596 -0.1087 -0.0996
  488SOL    HW1 1505   4.772   2.518   0.758  1.4234  1.1041 -0.5010
  488SOL    HW2 1506   4.806   2.462   0.894 -0.9718 -0.6296 -0.5478
  489SOL     OW 1507   4.976   1.851   1.001  0.1795 -0.0595 -0.1203
  489SOL    HW1 1508   5.054   1.847   1.056  0.3681  0.4392 -0.3456
  489SOL    HW2 1509   4.925   1.774   1.026 -1.1655  1.6135  2.8514
  490SOL     OW 1510   1.367   3.153   0.552  0.0472  0.0144  0.0211
  490SOL    HW1 1511   1.381   3.177   0.460  1.7088  1.5595  0.6178
  490SOL    HW2 1512   1.301   3.215   0.583 -0.2063 -0.2389 -0.0029
  491SOL     OW 1513   5.226   3.771   1.616 -0.5146  0.0893 -0.4449
  491SOL    HW1 1514   5.262   3.743   1.700  1.0478 -1.2799 -1.5251
  491SOL    HW2 1515   5.204   3.690   1.571 -1.7093  0.8219 -1.2246
  492SOL     OW 1516   1.460   2.406   0.127  0.5655  0.0574 -0.0549
  492SOL    HW1 1517   1.506   2.422   0.045  1.0940 -2.3575 -0.2819
  492SOL    HW2 1518   1.491   2.476   0.186  2.0108  0.3990 -1.1768
  493SOL     OW 1519   4.562   3.511   1.025  0.0305  0.0980  0.3145
  493SOL    HW1 1520   4.529   3.490   0.938  1.2627 -0.8359  0.0338
  493SOL    HW2 1521   4.501   3.468   1.085 -1.3900  1.5594 -0.0061
  494SOL     OW 1522   5.004   2.214   1.853 -0.1047  0.0305 -0.1970
  494SOL    HW1 1523   4.958   2.169   1.782 -2.4175  2.8531 -0.6902
  494SOL    HW2 1524   5.058   2.279   1.809  1.6779 -0.8429  0.5770
  495SOL     OW 1525   1.984   2.574   1.452  0.0569  0.1779  0.1794
  495SOL    HW1 1526   2.037   2.614   1.383  0.7898 -2.5601 -0.9859
  495SOL    HW2 1527   1.897   2.565   1.413 -0.2904  1.1865  0.6901
  496SOL     OW 1528   5.329   2.175   1.951  0.5239 -0.1273  0.2848
  496SOL    HW1 1529   5.277   2.094   1.955 -0.7150  0.4403 -2.1494
  496SOL    HW2 1530   5.306   2.222   2.031  0.1531 -1.5300  1.0396
  497SOL     OW 1531   4.770   1.949   1.926 -0.1092 -0.2319 -0.2806
  497SOL    HW1 1532   4.754   1.876   1.866 -0.6050 -1.5182  1.3409
  497SOL    HW2 1533   4.781   2.025   1.868  1.8446 -1.7727 -2.1021
  498SOL     OW 1534   0.607   2.905   0.939 -0.9710  0.0103  0.3403
  498SOL    HW1 1535   0.616   2.964   1.014 -3.5658 -0.3633  1.0659
  498SOL    HW2 1536   0.582   2.962   0.867 -0.3953  0.1506  0.2514
  499SOL     OW 1537   1.187   2.866   0.778  0.0069 -0.6684  0.4542
  499SOL    HW1 1538   1.268   2.839   0.736  0.9375  0.4104  1.4604
  499SOL    HW2 1539   1.158   2.790   0.828 -0.3377 -1.4851 -0.9387
  500SOL     OW 1540   1.037   1.953   0.100 -0.1864 -0.2107  0.4560
  500SOL    HW1 1541   1.074   1.865   0.104 -0.9111 -0.4849  1.7025
  500SOL    HW2 1542   1.080   2.000   0.171  1.4326  0.9805 -1.2203
  501SOL     OW 1543   4.486   2.322   1.483 -0.1598 -0.0104 -0.1811
  501SOL    HW1 1544   4.407   2.335   1.430  0.0933  1.7824 -0.1867
  501SOL    HW2 1545   4.532   2.250   1.440 -0.6216  0.5105 -1.5934
  502SOL     OW 1546   4.756   2.944   1.242 -0.2943 -0.4081 -0.3955
  502SOL    HW1 1547   4.729   2.962   1.333 -0.2125  0.4148 -0.5222
  502SOL    HW2 1548   4.779   2.852   1.242  0.0128 -0.3463  0.5033
  503SOL     OW 1549   0.774   2.180   0.808 -0.2679  0.4757 -0.1268
  503SOL    HW1 1550   0.768   2.269   0.773  1.2813  0.9187  0.6289
  503SOL    HW2 1551   0.812   2.129   0.738  0.5424  0.8244  0.0490
  504SOL     OW 1552   2.039   2.796   1.968 -0.4176 -0.3532 -0.6186
  504SOL    HW1 1553   2.128   2.788   1.932 -0.2706  0.7958 -0.5557
  504SOL    HW2 1554   2.002   2.709   1.959  0.9879 -1.0652  0.0584
  505SOL     OW 1555   4.725   1.680   0.773  0.1018 -0.2843  0.1668
  505SOL    HW1 1556   4.693   1.642   0.691  0.0653  1.3686 -0.6340
  505SOL    HW2 1557   4.769   1.761   0.746  0.5921  0.0082  1.7378
  506SOL     OW 1558   1.301   2.171   0.145  0.3757  0.1520 -0.4372
  506SOL    HW1 1559   1.319   2.132   0.230  2.9682  0.9432 -0.5290
  506SOL    HW2 1560   1.364   2.243   0.138 -2.2848  2.5687 -1.4678
  507SOL     OW 1561   1.034   2.453   0.884  0.1617 -0.1720 -0.1296
  507SOL    HW1 1562   1.126   2.459   0.857  0.3764 -0.9418  0.4062
  507SOL    HW2 1563   1.013   2.360   0.878 -0.2368 -0.1534  0.8909
  508SOL     OW 1564   5.418   3.186   2.055 -0.7108 -0.1789 -0.7074
  508SOL    HW1 1565   5.344   3.153   2.004  0.3186 -2.4213 -0.8474
  508SOL    HW2 1566   5.422   3.130   2.132 -0.4811  1.3346  0.4129
  509SOL     OW 1567   1.843   3.533   1.462  0.6623  0.3223 -0.5610
  509SOL    HW1 1568   1.851   3.484   1.544  1.2079 -0.6085 -1.1571
  509SOL    HW2 1569   1.869   3.471   1.394 -0.2140  0.9486 -1.4896
  510SOL     OW 1570   4.998   2.828   1.824 -0.2780 -0.0684  0.5615
  510SOL    HW1 1571   5.077   2.837   1.771 -0.4008 -1.2424  0.1537
  510SOL    HW2 1572   4.976   2.918   1.850  1.4246  0.2403  1.0487
  511SOL     OW 1573   2.021   1.474   0.109 -0.4465  0.3074 -0.2353
  511SOL    HW1 1574   1.954   1.431   0.162  1.1769 -2.0408  0.1049
  511SOL    HW2 1575   2.052   1.546   0.164  0.1150 -1.1213  1.4362
  512SOL     OW 1576   3.324   5.068   2.465 -0.2914 -0.3082  0.1203
  512SOL    HW1 1577   3.309   5.163   2.472  0.0538 -0.0942 -1.4850
  512SOL    HW2 1578   3.260   5.039   2.400 -1.3024 -1.4440  1.5902
  513SOL     OW 1579   1.206   3.064   1.002 -0.0612 -0.1722  0.0933
  513SOL    HW1 1580   1.193   2.997   0.935  2.0366 -3.0376  2.2976
  513SOL    HW2 1581   1.298   3.089   0.995 -0.1050  0.3657  1.1298
  514SOL     OW 1582   5.038   2.669   1.080 -0.4178  0.4270 -0.0550
  514SOL    HW1 1583   5.106   2.734   1.100 -0.0649 -0.1998  0.8339
  514SOL    HW2 1584   4.966   2.690   1.140 -0.4694  0.2504 -0.0541
  515SOL     OW 1585   4.836   2.265   1.161  0.1670 -0.1932  0.4510
  515SOL    HW1 1586   4.771   2.324   1.124  2.0103  1.9837  0.4627
  515SOL    HW2 1587   4.820   2.181   1.118 -1.3499  0.7832 -0.9924
  516SOL     OW 1588   1.184   2.230   1.510 -0.0202 -0.4981 -0.3599
  516SOL    HW1 1589   1.157   2.291   1.441  0.2460 -0.2764 -0.2749
  516SOL    HW2 1590   1.244   2.282   1.564 -0.8684 -0.4086  0.5244
  517SOL     OW 1591   1.235   2.387   1.190  0.7692  0.2958  0.0209
  517SOL    HW1 1592   1.298   2.318   1.211  0.8514 -0.1537 -1.5346
  517SOL    HW2 1593   1.194   2.357   1.109  0.0174  1.5600 -0.0872
  518SOL     OW 1594   4.430   3.051   0.220  0.1305 -0.2613 -0.3388
  518SOL    HW1 1595   4.461   3.032   0.132  1.0908  0.2149 -0.1251
  518SOL    HW2 1596   4.506   3.033   0.276 -0.3900 -0.3241  0.3629
  519SOL     OW 1597   3.927   3.582   1.001 -0.7131 -0.2512 -0.6269
  519SOL    HW1 1598   3.888   3.669   0.995 -1.6845 -0.5161  1.3167
  519SOL    HW2 1599   3.952   3.561   0.911  0.5472  2.4622 -0.9991
  520SOL     OW 1600   4.377   3.005   0.709 -0.4463 -0.3596 -0.1484
  520SOL    HW1 1601   4.377   3.100   0.724 -0.8819 -0.4511  0.4738
  520SOL    HW2 1602   4.293   2.988   0.665 -1.4865 -0.7549  1.8730
  521SOL     OW 1603   0.960   2.974   0.687 -0.3454 -0.3051  0.2555
  521SOL    HW1 1604   0.874   2.931   0.694 -0.5749 -0.0181 -0.6859
  521SOL    HW2 1605   1.020   2.914   0.732 -1.0080 -0.5731  0.8166
  522SOL     OW 1606   4.668   2.435   1.037 -0.3393  0.1992 -0.4482
  522SOL    HW1 1607   4.579   2.415   1.007 -1.4299  1.8790  1.4012
  522SOL    HW2 1608   4.670   2.530   1.041  1.9375  0.2321 -1.4543
  523SOL     OW 1609   4.793   2.420   1.637 -0.1316 -0.2576 -0.1039
  523SOL    HW1 1610   4.726   2.485   1.660 -1.4119 -1.4468 -0.3470
  523SOL    HW2 1611   4.872   2.450   1.684 -1.0202  0.7527  0.8218
  524SOL     OW 1612   1.588   2.472   1.851  0.2779 -0.3556  0.4985
  524SOL    HW1 1613   1.492   2.476   1.848  0.2645 -0.8307  0.2385
  524SOL    HW2 1614   1.614   2.458   1.760  0.5507 -1.0564  0.6774
  525SOL     OW 1615   3.111   4.566   2.993  0.0345 -0.2969 -1.1141
  525SOL    HW1 1616   3.181   4.631   2.989 -2.2949  2.5755  0.9705
  525SOL    HW2 1617   3.110   4.537   3.085 -2.3146  0.8142 -0.7195
  526SOL     OW 1618   1.530   2.618   0.975  0.1704  0.1811 -0.0551
  526SOL    HW1 1619   1.530   2.714   0.975  0.9574  0.3124  3.2093
  526SOL    HW2 1620   1.599   2.593   0.914  2.2188  1.8775  1.4221
  527SOL     OW 1621   4.485   3.247   1.325  0.5427 -0.3154 -0.0712
  527SOL    HW1 1622   4.445   3.311   1.266  1.3997 -0.9291 -1.3684
  527SOL    HW2 1623   4.412   3.215   1.379 -0.3730 -0.0986 -1.1403
  528SOL     OW 1624   5.225   2.571   1.280 -0.3341  0.4125  0.3285
  528SOL    HW1 1625   5.173   2.518   1.219 -2.9599 -0.7166  3.2619
  528SOL    HW2 1626   5.262   2.641   1.226 -1.6593 -1.0171 -2.6763
  529SOL     OW 1627   5.226   3.428   1.724  0.3358  0.3616  0.5772
  529SOL    HW1 1628   5.211   3.443   1.631  0.4412 -1.2273  0.2709
  529SOL    HW2 1629   5.152   3.469   1.768  1.0967  2.5266 -0.0598
  530SOL     OW 1630   0.861   3.029   0.287 -0.1336  0.2268 -0.0956
  530SOL    HW1 1631   0.928   3.057   0.350 -0.6309 -2.5224  1.8603
  530SOL    HW2 1632   0.898   2.949   0.248  0.6088  2.3523 -4.2625
  531SOL     OW 1633   4.795   3.378   1.298  0.5722  0.3688  0.0100
  531SOL    HW1 1634   4.717   3.362   1.351 -0.2905  0.5834 -1.1425
  531SOL    HW2 1635   4.775   3.337   1.214  2.1222 -0.4325 -0.0085
  532SOL     OW 1636   5.335   3.090   1.506  0.1197  0.0526  0.0577
  532SOL    HW1 1637   5.312   3.183   1.501  0.2782  0.1130  0.3805
  532SOL    HW2 1638   5.348   3.063   1.415 -1.6690 -0.1115 -0.1878
  533SOL     OW 1639   1.231   2.497   0.375 -0.2021  0.0831  0.2425
  533SOL    HW1 1640   1.278   2.537   0.449  0.4693 -0.1530 -0.0481
  533SOL    HW2 1641   1.299   2.483   0.309 -0.4525 -1.3336  0.2568
  534SOL     OW 1642   1.610   3.673   1.410  0.5988  0.7050 -0.3778
  534SOL    HW1 1643   1.676   3.609   1.436  0.3637  0.5342 -0.1921
  534SOL    HW2 1644   1.546   3.671   1.482  0.7140  1.3239 -0.2495
  535SOL     OW 1645   5.451   3.922   1.696  0.2811 -0.0928 -0.1180
  535SOL    HW1 1646   5.454   3.859   1.768  0.3213  0.8402  0.7206
  535SOL    HW2 1647   5.388   3.886   1.635  2.3487 -2.3989 -1.0684
  536SOL     OW 1648   4.364   2.672   0.927 -0.4063  0.0747  0.0593
  536SOL    HW1 1649   4.422   2.705   0.858 -0.9937 -0.9171 -0.9350
  536SOL    HW2 1650   4.396   2.714   1.007  2.2455 -1.1129 -0.2815
  537SOL     OW 1651   4.946   3.511   1.821  0.1461 -0.3787 -0.4319
  537SOL    HW1 1652   4.945   3.477   1.911  0.9355  1.7421  0.4333
  537SOL    HW2 1653   4.900   3.444   1.770  0.0205 -1.8329  1.4587
  538SOL     OW 1654   3.232   4.171   2.900 -0.1785  0.0253 -0.2384
  538SOL    HW1 1655   3.213   4.081   2.874  1.2815 -0.9944  1.9323
  538SOL    HW2 1656   3.234   4.169   2.996  3.5221  1.4716 -0.1034
  539SOL     OW 1657   1.608   1.995   0.423 -0.0585 -0.1791 -0.0874
  539SOL    HW1 1658   1.618   1.901   0.441  0.6270 -0.0085  0.4488
  539SOL    HW2 1659   1.608   2.000   0.328  0.2075 -0.6930 -0.1219
  540SOL     OW 1660   1.738   4.440   0.850  0.3037 -0.0514 -0.3680
  540SOL    HW1 1661   1.793   4.362   0.858  1.8436  0.9414 -0.7174
  540SOL    HW2 1662   1.795   4.512   0.877 -1.5950  0.8230  1.5790
  541SOL     OW 1663   4.273   3.517   1.738 -0.3947  0.2191  0.2355
  541SOL    HW1 1664   4.299   3.424   1.738 -1.0975 -0.0037 -0.8703
  541SOL    HW2 1665   4.181   3.515   1.713 -0.1349  1.2696 -0.8969
  542SOL     OW 1666   1.562   2.790   0.665  0.1402  0.0562 -0.4369
  542SOL    HW1 1667   1.641   2.792   0.718 -0.7152 -0.7888  0.9150
  542SOL    HW2 1668   1.515   2.870   0.688  0.1674  0.1095 -0.5635
  543SOL     OW 1669   0.890   2.931   1.148 -0.1563 -0.0338  0.3582
  543SOL    HW1 1670   0.951   3.002   1.168  0.0638  0.1869 -0.9853
  543SOL    HW2 1671   0.922   2.895   1.065 -0.5393 -1.3975  0.7780
  544SOL     OW 1672   3.279   5.922   2.901 -0.1286  0.0858 -0.0398
  544SOL    HW1 1673   3.327   5.843   2.878 -1.1867 -0.5869  0.0112
  544SOL    HW2 1674   3.230   5.945   2.822 -0.0839  0.5026  0.0489
  545SOL     OW 1675   2.115   3.847   1.795 -0.0397 -0.1008  0.7800
  545SOL    HW1 1676   2.038   3.802   1.829  0.3806  1.2313  3.8209
  545SOL    HW2 1677   2.085   3.937   1.779 -0.2190 -0.6697 -2.6661
  546SOL     OW 1678   1.597   2.167   1.015 -0.0924 -0.6760  0.1332
  546SOL    HW1 1679   1.602   2.073   1.032  0.3025 -0.8342 -0.7898
  546SOL    HW2 1680   1.558   2.175   0.928 -0.6102  0.0419  0.4146
  547SOL     OW 1681   0.396   1.971   0.456 -0.0278  0.5318 -0.5822
  547SOL    HW1 1682   0.349   2.046   0.420 -0.8532 -0.3155 -1.3262
  547SOL    HW2 1683   0.364   1.896   0.406 -0.5394 -0.5740  1.2779
  548SOL     OW 1684   3.451   5.380   2.768 -0.1909  0.3876 -0.4959
  548SOL    HW1 1685   3.435   5.286   2.764  1.8175 -0.2979  3.0449
  548SOL    HW2 1686   3.368   5.416   2.800 -0.1304 -0.6901  1.0263
  549SOL     OW 1687   4.812   2.814   1.611 -0.0227  0.2894  0.0473
  549SOL    HW1 1688   4.802   2.900   1.570 -1.9701 -0.3327 -0.9121
  549SOL    HW2 1689   4.891   2.822   1.665  1.4696  1.8237 -2.1685
  550SOL     OW 1690   0.983   2.659   0.086  0.2606 -0.1844  0.1729
  550SOL    HW1 1691   0.890   2.644   0.104  0.0595 -0.3295 -0.8812
  550SOL    HW2 1692   1.010   2.724   0.150 -0.7305  0.3274  0.0908
  551SOL     OW 1693   1.427   3.334   0.083 -0.4469  0.3679 -0.7604
  551SOL    HW1 1694   1.441   3.429   0.086 -0.4941  0.3498  0.5546
  551SOL    HW2 1695   1.448   3.310  -0.007  0.3077  1.5127 -0.9108
  552SOL     OW 1696   5.175   3.531   1.481  0.6727  0.9347 -0.0040
  552SOL    HW1 1697   5.240   3.503   1.417  0.5245 -1.8366  0.9297
  552SOL    HW2 1698   5.092   3.531   1.434  0.3402 -2.4302  0.3523
  553SOL     OW 1699   2.012   2.920   1.203  0.3349  0.6511  0.1989
  553SOL    HW1 1700   2.058   2.980   1.144  0.3354  0.5745  0.1211
  553SOL    HW2 1701   2.036   2.948   1.291  1.3299 -0.0223  0.1502
  554SOL     OW 1702   1.460   2.997   0.782  0.1287  0.1618 -0.3789
  554SOL    HW1 1703   1.418   3.035   0.705 -2.6771 -1.5996  0.1526
  554SOL    HW2 1704   1.472   3.071   0.842  1.4038  1.3657 -2.0255
  555SOL     OW 1705   1.262   1.824   0.461 -0.6278 -0.0261  0.4165
  555SOL    HW1 1706   1.178   1.784   0.438  0.5624 -1.3690 -1.9331
  555SOL    HW2 1707   1.325   1.752   0.459  1.0323  1.3738 -0.5886
  556SOL     OW 1708   4.615   3.411   0.713  0.0858 -0.4188 -0.2278
  556SOL    HW1 1709   4.684   3.389   0.776  0.7412 -0.8525 -1.0804
  556SOL    HW2 1710   4.626   3.505   0.698  0.1915 -0.3936  0.0012
  557SOL     OW 1711   1.754   2.624   1.265 -0.3464  0.3197  0.0106
  557SOL    HW1 1712   1.687   2.647   1.329  0.4146  0.1179  0.8972
  557SOL    HW2 1713   1.717   2.550   1.217 -0.7243  0.1593  0.5417
  558SOL     OW 1714   0.231   2.943  -0.006 -0.3435 -0.1161 -0.1829
  558SOL    HW1 1715   0.236   2.982  -0.093 -0.3893  2.1667  0.7581
  558SOL    HW2 1716   0.323   2.932   0.020 -0.3319 -0.3824 -0.3284
  559SOL     OW 1717   4.805   3.173   1.790 -0.0295  0.2273 -0.2794
  559SOL    HW1 1718   4.878   3.127   1.748  1.0790 -0.2411  2.0128
  559SOL    HW2 1719   4.791   3.126   1.872 -0.8844  2.1531  0.7462
  560SOL     OW 1720   4.998   1.966   1.417 -0.1020  0.4371  0.3284
  560SOL    HW1 1721   5.034   1.944   1.331  0.2736  2.6829 -0.1570
  560SOL    HW2 1722   4.916   2.012   1.398 -1.0480 -0.7722  1.2861
  561SOL     OW 1723   2.374   4.149   3.007 -0.1125  0.3293  0.9267
  561SOL    HW1 1724   2.314   4.169   2.936  0.6133 -0.8785 -0.0714
  561SOL    HW2 1725   2.461   4.160   2.968  0.3606 -3.7019  0.4848
  562SOL     OW 1726   1.523   2.674   1.418 -0.2172 -0.5803  0.2153
  562SOL    HW1 1727   1.438   2.650   1.383  0.0534 -0.1310 -0.7696
  562SOL    HW2 1728   1.503   2.739   1.486 -0.6836 -0.7708  0.2635
  563SOL     OW 1729   3.833   2.338   0.223  0.1806  0.4805 -0.0067
  563SOL    HW1 1730   3.891   2.380   0.159  0.6223  1.5086  1.0397
  563SOL    HW2 1731   3.851   2.383   0.305  1.1878 -2.1927  1.3625
  564SOL     OW 1732   3.148   5.044   2.933  0.5234 -0.0702 -0.2173
  564SOL    HW1 1733   3.120   4.953   2.943  0.3167 -0.0418 -0.4999
  564SOL    HW2 1734   3.173   5.072   3.021  0.1424 -0.2578 -0.0474
  565SOL     OW 1735   5.003   2.555   1.767 -0.3835  0.2384  0.1824
  565SOL    HW1 1736   5.000   2.650   1.776 -0.9903  0.1457  1.1910
  565SOL    HW2 1737   5.074   2.538   1.706  0.1413  1.3113  0.4815
  566SOL     OW 1738   1.362   3.482   1.047 -0.6097  0.3796 -0.0441
  566SOL    HW1 1739   1.339   3.459   1.137 -0.8343 -0.0739 -0.2118
  566SOL    HW2 1740   1.279   3.476   0.999 -0.6201  1.3005 -0.1482
  567SOL     OW 1741   5.244   2.273   1.697  0.2935 -0.2015 -0.0059
  567SOL    HW1 1742   5.263   2.268   1.791 -0.1685  2.5184  0.3001
  567SOL    HW2 1743   5.318   2.230   1.655  2.1536  1.3549  1.5142
  568SOL     OW 1744   1.426   3.301   1.719 -0.0692 -0.3735 -0.1101
  568SOL    HW1 1745   1.514   3.324   1.748 -1.3766  2.9540  1.7765
  568SOL    HW2 1746   1.390   3.248   1.791 -0.5017  0.6817  0.4700
  569SOL     OW 1747   4.947   3.606   1.354 -0.1974  0.2717 -0.0494
  569SOL    HW1 1748   4.872   3.654   1.388 -0.7659  0.1406 -1.0781
  569SOL    HW2 1749   4.908   3.536   1.301  0.6378  0.3195 -0.7493
  570SOL     OW 1750   1.023   2.689   1.052 -0.0490  0.0212 -1.0080
  570SOL    HW1 1751   1.115   2.702   1.073 -0.1166  1.0397 -1.2992
  570SOL    HW2 1752   1.022   2.609   0.999  0.1891 -2.2584  2.1625
  571SOL     OW 1753   1.039   2.300   0.150 -0.1968  0.0240  0.0719
  571SOL    HW1 1754   1.112   2.252   0.113  1.4399  1.3646  1.3932
  571SOL    HW2 1755   1.045   2.285   0.244 -1.5126  0.3511  0.2381
  572SOL     OW 1756   0.727   2.414   0.659 -0.6022  0.0513  0.3530
  572SOL    HW1 1757   0.674   2.389   0.583 -1.1964 -1.7164  1.2945
  572SOL    HW2 1758   0.665   2.422   0.731  0.0917  0.6283  0.9064
  573SOL     OW 1759   1.630   2.365   1.601 -0.2733  0.5275  0.8624
  573SOL    HW1 1760   1.593   2.397   1.519  2.1898 -1.0713 -0.9865
  573SOL    HW2 1761   1.554   2.335   1.651 -1.8185  1.1674 -0.9840
  574SOL     OW 1762   2.009   2.668   1.129 -0.3067 -0.0164  0.1702
  574SOL    HW1 1763   1.919   2.637   1.129 -0.2833 -0.2251  2.1506
  574SOL    HW2 1764   2.004   2.758   1.162  0.1401  0.2903 -0.5626
  575SOL     OW 1765   3.141   5.330   2.861  0.4401  0.1717  0.0064
  575SOL    HW1 1766   3.139   5.242   2.899  0.5229  0.2740  0.2497
  575SOL    HW2 1767   3.075   5.379   2.910  1.3842  0.6393  0.8629
  576SOL     OW 1768   1.066   3.539   0.767  0.0194  0.3774  0.0568
  576SOL    HW1 1769   1.049   3.508   0.856 -0.2685 -0.3928 -0.2558
  576SOL    HW2 1770   0.990   3.592   0.744 -0.6524 -0.7162 -0.2949
  577SOL     OW 1771   0.928   3.218   0.801  0.3151 -0.1223  0.4573
  577SOL    HW1 1772   1.004   3.210   0.858  0.2869 -0.3933  0.4581
  577SOL    HW2 1773   0.911   3.129   0.771 -0.9125 -0.3176  1.6329
  578SOL     OW 1774   1.319   2.717   0.102 -0.3423 -0.5843  0.1381
  578SOL    HW1 1775   1.240   2.769   0.100 -0.2866 -0.4658 -2.2862
  578SOL    HW2 1776   1.384   2.772   0.146 -0.7410  0.6917 -0.8280
  579SOL     OW 1777   1.790   3.320   1.147  0.2062 -0.3782  0.4522
  579SOL    HW1 1778   1.741   3.288   1.223  0.9591  1.2668  1.6883
  579SOL    HW2 1779   1.730   3.380   1.104 -0.4033 -1.6821 -0.6022
  580SOL     OW 1780   4.612   3.387   1.761 -0.2615  0.5238 -0.3806
  580SOL    HW1 1781   4.579   3.387   1.851 -2.3907  1.4818 -1.0908
  580SOL    HW2 1782   4.671   3.311   1.757 -0.2887  0.3251  1.7279
  581SOL     OW 1783   4.114   3.193   0.723  0.4392  0.4860  0.5158
  581SOL    HW1 1784   4.031   3.146   0.718 -0.3803  1.9703 -0.7221
  581SOL    HW2 1785   4.119   3.222   0.814 -0.2221  0.0513  0.6969
  582SOL     OW 1786   5.034   3.094   1.628  0.3304  0.4960 -0.0493
  582SOL    HW1 1787   5.022   3.129   1.540 -2.8254 -1.3458 -0.5368
  582SOL    HW2 1788   5.114   3.041   1.622  0.1927  0.4100 -1.8334
  583SOL     OW 1789   1.429   2.130   0.778  0.0009  0.2438  0.4031
  583SOL    HW1 1790   1.362   2.196   0.761 -0.2920 -0.5097 -1.6517
  583SOL    HW2 1791   1.383   2.046   0.771  1.2793 -0.3718 -2.4322
  584SOL     OW 1792   0.573   2.328   0.407  0.2025 -0.1838 -0.3958
  584SOL    HW1 1793   0.650   2.277   0.383  1.2093  0.9566  0.2837
  584SOL    HW2 1794   0.499   2.269   0.392  1.2796 -1.6624 -0.0823
  585SOL     OW 1795   1.300   3.350   1.294 -0.0932  0.2052 -0.3133
  585SOL    HW1 1796   1.293   3.291   1.368  0.7858  1.8183  1.1249
  585SOL    HW2 1797   1.209   3.369   1.270 -0.4116 -1.8938 -1.0377
  586SOL     OW 1798   4.787   2.457   1.362 -0.1804  0.2868 -0.3173
  586SOL    HW1 1799   4.797   2.425   1.451 -0.3926  0.2204 -0.3174
  586SOL    HW2 1800   4.785   2.379   1.307 -1.9605  0.2110 -0.2008
  587SOL     OW 1801   0.762   3.420   0.636  0.4553 -0.3870 -0.6622
  587SOL    HW1 1802   0.809   3.351   0.683 -0.4582  0.2655  1.3097
  587SOL    HW2 1803   0.681   3.432   0.686  0.1256  1.4108 -1.5467
  588SOL     OW 1804   1.362   2.120   1.195  0.0986 -0.1123 -0.3599
  588SOL    HW1 1805   1.282   2.132   1.144  0.3179  1.2900 -0.4126
  588SOL    HW2 1806   1.432   2.125   1.130  0.2453 -1.6757 -0.3655
  589SOL     OW 1807   0.899   1.875   1.136 -0.4131  0.3007  0.1001
  589SOL    HW1 1808   0.895   1.971   1.139  0.4860  0.3379  0.5065
  589SOL    HW2 1809   0.977   1.856   1.084 -1.2491 -0.2311 -0.9923
  590SOL     OW 1810   1.088   3.217   0.184  0.1202 -0.4657  0.0334
  590SOL    HW1 1811   1.014   3.217   0.124 -0.2994 -0.1139  0.5458
  590SOL    HW2 1812   1.062   3.276   0.255  1.6436  1.1469 -0.6864
  591SOL     OW 1813   1.019   3.596   1.054  0.0798  0.2950 -0.7369
  591SOL    HW1 1814   0.962   3.671   1.071 -0.3361 -0.1762  0.0226
  591SOL    HW2 1815   0.988   3.529   1.115 -0.5036 -1.0037 -2.3832
  592SOL     OW 1816   1.254   1.434   0.222  0.5804  0.2033 -0.1007
  592SOL    HW1 1817   1.306   1.438   0.142 -0.1023 -1.1102 -0.6401
  592SOL    HW2 1818   1.164   1.429   0.192  0.1628  1.5948  0.8112
  593SOL     OW 1819   1.187   2.222   0.660  0.1235 -0.2275 -0.2018
  593SOL    HW1 1820   1.160   2.237   0.569  1.4528  0.8755 -0.4523
  593SOL    HW2 1821   1.207   2.309   0.694  1.5070 -0.7992  0.5322
  594SOL     OW 1822   1.615   2.212   0.574 -0.1377  0.0467  0.0746
  594SOL    HW1 1823   1.558   2.203   0.651 -1.4600  0.0309 -0.8754
  594SOL    HW2 1824   1.606   2.128   0.529 -1.8045  1.1135 -1.6948
  595SOL     OW 1825   0.084   2.710   0.080  0.0492 -0.0131 -0.3533
  595SOL    HW1 1826   0.133   2.772   0.026  0.7366 -0.5146 -0.3220
  595SOL    HW2 1827   0.131   2.707   0.163  0.4296 -1.0586 -0.5827
  596SOL     OW 1828   1.037   3.711   0.086  0.2274 -0.6879  0.3848
  596SOL    HW1 1829   1.063   3.731  -0.004 -0.9545 -0.2372  0.1228
  596SOL    HW2 1830   1.117   3.723   0.138  0.5233  0.7805 -0.3570
  597SOL     OW 1831   4.551   2.490   2.364  0.2095  0.0324  0.3526
  597SOL    HW1 1832   4.528   2.397   2.357  0.8100 -0.1010  0.0587
  597SOL    HW2 1833   4.522   2.516   2.451 -0.4526 -0.2901  0.2329
  598SOL     OW 1834   4.443   6.340   2.860 -0.1172  0.5329 -0.0484
  598SOL    HW1 1835   4.361   6.328   2.811 -0.4999  1.8140  0.2182
  598SOL    HW2 1836   4.489   6.257   2.852  0.0382  0.8049 -2.9405
  599SOL     OW 1837   4.287   2.539   2.214  0.2687  0.6006 -0.1303
  599SOL    HW1 1838   4.301   2.455   2.258 -0.7918  0.4394 -0.0821
  599SOL    HW2 1839   4.374   2.580   2.214  0.7119 -0.2962  0.2402
  600SOL     OW 1840   5.122   3.269   3.015  0.6686  0.0830 -0.0936
  600SOL    HW1 1841   5.149   3.337   3.077 -0.6506 -0.1010  0.7159
  600SOL    HW2 1842   5.049   3.225   3.058  0.4808 -0.8225 -1.2921
  601SOL     OW 1843   5.745   3.419   2.628 -0.2263 -0.0794  0.3133
  601SOL    HW1 1844   5.791   3.338   2.652  1.1603  0.1800 -1.2207
  601SOL    HW2 1845   5.697   3.443   2.707  0.3988 -1.6693  1.2519
  602SOL     OW 1846   4.976   2.752   2.230 -0.2401 -0.2035 -0.4888
  602SOL    HW1 1847   5.002   2.695   2.157 -0.6603 -0.1733 -0.6619
  602SOL    HW2 1848   4.892   2.717   2.259 -0.3776  0.1696 -0.4300
  603SOL     OW 1849   1.669   2.473   2.136  0.0235  0.0427  0.3737
  603SOL    HW1 1850   1.696   2.384   2.159 -2.0590 -0.4929  1.0231
  603SOL    HW2 1851   1.644   2.468   2.044  1.2864  0.3482 -0.0057
  604SOL     OW 1852   2.733   1.030   0.107  0.3080  0.1626  0.2214
  604SOL    HW1 1853   2.702   1.007   0.195 -2.7643  0.9334 -0.5572
  604SOL    HW2 1854   2.665   1.087   0.072  2.0372  0.8298 -2.2599
  605SOL     OW 1855   4.979   3.090   2.405  0.2373  0.0964 -0.4448
  605SOL    HW1 1856   5.053   3.099   2.345 -0.0806  0.0228 -0.8481
  605SOL    HW2 1857   4.970   2.996   2.420 -1.6623 -0.1773 -2.7894
  606SOL     OW 1858   2.588   1.291   0.188 -0.5940  0.3921  0.8446
  606SOL    HW1 1859   2.682   1.276   0.197 -0.6109  0.0368  0.4574
  606SOL    HW2 1860   2.579   1.342   0.108 -0.8254 -0.6531  0.1888
  607SOL     OW 1861   3.755   1.406   0.529  0.4996  0.4438 -0.0236
  607SOL    HW1 1862   3.684   1.398   0.466  0.4622 -0.3764  0.1107
  607SOL    HW2 1863   3.805   1.482   0.499  0.4815  0.0702 -1.0553
  608SOL     OW 1864   1.920   1.992   2.673 -0.3966 -0.0366  0.3607
  608SOL    HW1 1865   2.010   2.018   2.651 -0.9410  1.7306  0.0663
  608SOL    HW2 1866   1.915   1.900   2.647  1.7289 -0.6042  1.6609
  609SOL     OW 1867   4.801   3.673   2.204  0.5019  0.2063  0.1728
  609SOL    HW1 1868   4.888   3.714   2.198  0.5649 -0.1160 -2.7389
  609SOL    HW2 1869   4.808   3.595   2.149 -1.1038 -0.9350  1.4904
  610SOL     OW 1870   4.657   3.315   2.596 -0.0977 -0.4949  0.3333
  610SOL    HW1 1871   4.700   3.395   2.567 -0.5708 -0.8659 -1.4912
  610SOL    HW2 1872   4.687   3.303   2.686  2.4746  0.0123 -0.3892
  611SOL     OW 1873   4.861   3.045   2.834  0.0161  0.2496 -0.1853
  611SOL    HW1 1874   4.844   3.137   2.814  2.3784  0.7651 -0.1300
  611SOL    HW2 1875   4.779   3.001   2.813 -0.7830  2.1715 -1.4613
  612SOL     OW 1876   3.026   1.148   0.404  0.1105 -0.5421 -0.3091
  612SOL    HW1 1877   2.950   1.136   0.461 -0.1946 -0.6764 -0.7388
  612SOL    HW2 1878   3.035   1.064   0.358  1.1045 -0.8646  0.4352
  613SOL     OW 1879   5.408   2.879   1.664 -0.3380 -0.1021  0.4577
  613SOL    HW1 1880   5.317   2.851   1.670  0.0460 -2.0381 -1.2569
  613SOL    HW2 1881   5.404   2.963   1.619 -1.3782  1.3172  2.9932
  614SOL     OW 1882   3.839   3.899   0.336  0.0305 -0.7553  0.1808
  614SOL    HW1 1883   3.749   3.894   0.368 -0.4697 -0.6589 -1.1464
  614SOL    HW2 1884   3.857   3.993   0.329 -1.1227 -0.6785 -3.0670
  615SOL     OW 1885   4.506   2.620   2.621  0.0935  0.1305 -0.0465
  615SOL    HW1 1886   4.410   2.611   2.622 -0.0107  0.8568 -1.2369
  615SOL    HW2 1887   4.530   2.630   2.713 -1.5060  4.9430  0.1157
  616SOL     OW 1888   1.703   3.561   2.266  0.4527 -0.2772  0.3662
  616SOL    HW1 1889   1.683   3.469   2.286  0.0797 -0.5187 -0.9850
  616SOL    HW2 1890   1.694   3.606   2.350  0.0859 -1.3857  0.9472
  617SOL     OW 1891   4.513   3.359   2.016  0.0580  1.0918 -0.0376
  617SOL    HW1 1892   4.506   3.273   2.057  0.7070  1.0062 -0.0872
  617SOL    HW2 1893   4.427   3.399   2.027 -0.9141 -0.3399 -1.7854
  618SOL     OW 1894   6.044   2.420   2.423  0.0869  0.1390 -0.3678
  618SOL    HW1 1895   6.056   2.350   2.359  0.3277  0.1029 -0.2856
  618SOL    HW2 1896   6.130   2.429   2.465 -0.3086 -0.4928  0.6149
  619SOL     OW 1897   1.922   2.597   2.143 -0.0878  0.0433  0.3131
  619SOL    HW1 1898   1.838   2.579   2.186 -0.0623  0.3841  0.5031
  619SOL    HW2 1899   1.925   2.534   2.071 -0.6414  0.2247  0.1221
  620SOL     OW 1900   5.029   3.238   2.656 -0.1474  0.1235  0.3473
  620SOL    HW1 1901   5.036   3.162   2.714  1.0533  0.0180  0.0918
  620SOL    HW2 1902   5.000   3.201   2.572  0.3499 -0.0519  0.2474
  621SOL     OW 1903   3.429   0.756   0.493  0.2396  0.1497 -0.4524
  621SOL    HW1 1904   3.406   0.710   0.412 -0.3333 -1.2240  0.4588
  621SOL    HW2 1905   3.438   0.848   0.466  0.6761 -0.3488 -2.1809
  622SOL     OW 1906   5.092   2.269   2.563 -0.4039 -0.1895 -0.4939
  622SOL    HW1 1907   5.058   2.225   2.485  1.4751 -1.2105 -0.7953
  622SOL    HW2 1908   5.098   2.200   2.629  1.3461 -0.1470 -0.5645
  623SOL     OW 1909   2.574   0.586   0.337  0.3477 -0.3935 -0.6678
  623SOL    HW1 1910   2.593   0.639   0.259  1.5274 -1.3175 -1.0524
  623SOL    HW2 1911   2.624   0.628   0.407  1.4692 -1.1109 -1.0228
  624SOL     OW 1912   1.973   2.838   2.306  0.0545  0.2636  0.7062
  624SOL    HW1 1913   1.880   2.859   2.295 -0.0580 -0.6639 -0.3133
  624SOL    HW2 1914   1.992   2.778   2.234  1.5223  0.6611  0.7383
  625SOL     OW 1915   5.861   3.109   2.720 -0.1334 -0.0858 -0.0106
  625SOL    HW1 1916   5.867   3.030   2.774 -0.2419 -0.8410 -1.0611
  625SOL    HW2 1917   5.769   3.136   2.727 -0.2322 -0.3929 -0.0896
  626SOL     OW 1918   5.469   3.613   2.501  0.1645 -0.4171  0.2781
  626SOL    HW1 1919   5.535   3.546   2.520  0.1992 -0.0945  1.3436
  626SOL    HW2 1920   5.482   3.679   2.569 -1.3381 -0.4079  0.5707
  627SOL     OW 1921   5.285   2.684   1.895 -0.2357  0.3323 -0.2451
  627SOL    HW1 1922   5.340   2.678   1.818  0.2422 -0.1323  0.1273
  627SOL    HW2 1923   5.331   2.745   1.953 -0.8678  1.1154 -0.5432
  628SOL     OW 1924   5.771   2.219   3.003 -0.1866  0.5272 -0.4556
  628SOL    HW1 1925   5.689   2.269   3.005 -0.5574 -0.0616  1.3348
  628SOL    HW2 1926   5.751   2.143   2.948 -0.6252  0.7494 -0.6086
  629SOL     OW 1927   5.758   3.717   2.335 -0.8019  0.2153 -0.0595
  629SOL    HW1 1928   5.664   3.717   2.317 -0.6766 -1.4390 -0.8741
  629SOL    HW2 1929   5.798   3.682   2.255  0.4850  0.5666  0.4033
  630SOL     OW 1930   3.050   4.387   0.495  0.6719 -0.2770 -0.2005
  630SOL    HW1 1931   3.005   4.435   0.427 -0.3468 -0.0815  0.5849
  630SOL    HW2 1932   3.042   4.295   0.470 -1.3285 -0.3548  0.5658
  631SOL     OW 1933   3.377   0.192  -0.008  0.8574 -0.9089 -0.2139
  631SOL    HW1 1934   3.334   0.249   0.055  1.3321 -1.1526  0.3357
  631SOL    HW2 1935   3.313   0.123  -0.026  0.2874 -0.2210 -0.8717
  632SOL     OW 1936   5.250   2.577   2.292  0.0130 -0.5140  0.1525
  632SOL    HW1 1937   5.165   2.572   2.249  0.0295  0.5881 -0.0264
  632SOL    HW2 1938   5.232   2.619   2.376  0.1434 -1.7176  0.8122
  633SOL     OW 1939   4.417   2.572   3.069  0.1086  0.3842  0.6586
  633SOL    HW1 1940   4.470   2.629   3.126 -0.5270  0.3667  1.2836
  633SOL    HW2 1941   4.443   2.483   3.093 -0.6021  0.3590  1.3798
  634SOL     OW 1942   4.913   2.127   2.094  0.1928  0.3974  0.4518
  634SOL    HW1 1943   4.924   2.169   2.009  2.7077 -0.1006  0.4485
  634SOL    HW2 1944   4.894   2.035   2.073  0.3560  0.3671  0.4403
  635SOL     OW 1945   1.679   2.851   2.226  0.1784 -0.1353 -0.0761
  635SOL    HW1 1946   1.636   2.804   2.297  0.5578 -1.7447 -0.8677
  635SOL    HW2 1947   1.690   2.940   2.259  0.4753 -0.8756  1.9331
  636SOL     OW 1948   4.825   6.313   2.768  0.0326  0.1979 -0.5624
  636SOL    HW1 1949   4.819   6.224   2.734 -2.0897  0.0610  0.0312
  636SOL    HW2 1950   4.808   6.369   2.693  0.7719  0.1036 -0.8112
  637SOL     OW 1951   5.470   3.056   2.298 -0.4706 -0.8528  0.1877
  637SOL    HW1 1952   5.488   2.984   2.358 -0.3277  0.0374  1.2334
  637SOL    HW2 1953   5.458   3.133   2.354 -0.4713 -0.0242 -0.9032
  638SOL     OW 1954   5.247   3.383   2.593 -0.1806  0.0473 -0.2284
  638SOL    HW1 1955   5.183   3.314   2.609 -1.0979  0.5176 -1.7321
  638SOL    HW2 1956   5.195   3.458   2.565  0.9781  0.6502 -0.8278
  639SOL     OW 1957   5.947   2.770   2.709 -0.7327  0.1628 -0.2187
  639SOL    HW1 1958   6.001   2.691   2.715  0.1912  0.8371  0.6214
  639SOL    HW2 1959   5.973   2.823   2.784 -2.0884  0.8208 -0.1803
  640SOL     OW 1960   3.085   0.952   0.222  0.2992  0.2267 -0.1522
  640SOL    HW1 1961   3.108   0.861   0.244 -2.4897 -0.8871 -1.4250
  640SOL    HW2 1962   3.121   0.965   0.135  0.0174  0.0510 -0.2966
  641SOL     OW 1963   4.923   2.831   2.542  0.5813 -0.3582  0.2114
  641SOL    HW1 1964   4.972   2.757   2.505  1.0935  0.5898 -1.0848
  641SOL    HW2 1965   4.848   2.842   2.483 -0.5969 -1.0545  1.5149
  642SOL     OW 1966   5.958   3.050   2.471  0.2924 -0.2434  0.2371
  642SOL    HW1 1967   5.923   3.070   2.558  1.4051 -1.3305  0.9671
  642SOL    HW2 1968   6.053   3.059   2.481  0.3706  1.2104 -1.3174
  643SOL     OW 1969   5.431   3.677   1.836  0.1119  0.0865  0.0600
  643SOL    HW1 1970   5.384   3.620   1.897 -0.4980  1.2596  0.7246
  643SOL    HW2 1971   5.519   3.641   1.832  0.0500 -0.2384  1.3479
  644SOL     OW 1972   1.757   3.122   2.206 -0.3727 -0.0454 -0.2602
  644SOL    HW1 1973   1.777   3.139   2.298  0.1713 -0.7193 -0.2397
  644SOL    HW2 1974   1.692   3.188   2.182  1.0279  1.5099  0.0253
  645SOL     OW 1975   4.761   3.437   2.071 -0.1696  0.0533  0.2612
  645SOL    HW1 1976   4.671   3.427   2.040  0.0349 -1.0158 -0.0160
  645SOL    HW2 1977   4.764   3.384   2.151 -0.1044  1.0581  0.9458
  646SOL     OW 1978   5.596   2.089   2.196  0.3857  0.3515 -0.0859
  646SOL    HW1 1979   5.599   2.178   2.231  1.2511 -0.3042  1.5808
  646SOL    HW2 1980   5.602   2.032   2.272 -2.4685 -1.2228 -0.8751
  647SOL     OW 1981   2.414   1.608   0.044  0.0128  0.2298  0.3623
  647SOL    HW1 1982   2.466   1.549  -0.012 -1.0293  0.1139 -0.5150
  647SOL    HW2 1983   2.459   1.692   0.037 -0.1499  0.2407 -0.7484
  648SOL     OW 1984   5.280   3.694   2.830  0.0750  0.1342  0.1589
  648SOL    HW1 1985   5.297   3.713   2.738  0.5257 -3.4582 -0.6542
  648SOL    HW2 1986   5.191   3.659   2.831  0.2680 -0.3575  1.0210
  649SOL     OW 1987   4.790   2.339   2.584 -0.9281 -0.2593  0.0304
  649SOL    HW1 1988   4.706   2.335   2.630 -1.0034 -1.2383 -0.1773
  649SOL    HW2 1989   4.798   2.254   2.541 -0.4850  0.3319 -1.1002
  650SOL     OW 1990   5.293   6.008   2.322  0.6556  0.1692 -0.1754
  650SOL    HW1 1991   5.296   5.921   2.360  2.5715 -0.2407 -1.0987
  650SOL    HW2 1992   5.385   6.035   2.317  0.6506  0.1699 -4.3393
  651SOL     OW 1993   3.322   1.162   0.227 -0.3941 -0.1201 -0.1614
  651SOL    HW1 1994   3.310   1.085   0.282 -1.2253  0.7954  0.9941
  651SOL    HW2 1995   3.262   1.149   0.153  0.2140 -1.0353 -0.5004
  652SOL     OW 1996   3.581   0.377   0.038  0.8883 -0.5836 -0.7653
  652SOL    HW1 1997   3.498   0.332   0.019 -0.5663  2.4840 -2.5812
  652SOL    HW2 1998   3.604   0.350   0.126 -1.8478 -1.9064 -0.3615
  653SOL     OW 1999   5.472   2.908   2.678  0.2592  0.0575 -0.0421
  653SOL    HW1 2000   5.523   2.832   2.650  1.7359  1.1207 -0.3118
  653SOL    HW2 2001   5.394   2.905   2.621  2.2087  1.0092 -3.0004
  654SOL     OW 2002   4.995   2.164   3.057 -0.0109  0.6821  0.1781
  654SOL    HW1 2003   4.940   2.182   2.980 -1.3773 -1.6432  0.4967
  654SOL    HW2 2004   4.986   2.242   3.112 -1.7953  1.0007 -0.4989
  655SOL     OW 2005   4.933   1.878   2.423 -0.2320 -0.3711 -0.1434
  655SOL    HW1 2006   4.995   1.937   2.380 -0.1483 -0.5484 -0.2670
  655SOL    HW2 2007   4.881   1.842   2.351 -0.9759  0.3469  0.0263
  656SOL     OW 2008   1.573   2.902   1.972 -0.4357 -0.3558  1.0661
  656SOL    HW1 2009   1.597   2.900   2.065 -1.0925 -1.3545  1.2273
  656SOL    HW2 2010   1.503   2.837   1.964 -0.4553 -0.2047 -0.1125
  657SOL     OW 2011   4.620   2.116   2.295 -0.5104  0.2957  0.4935
  657SOL    HW1 2012   4.531   2.084   2.309 -1.3136  1.4926 -1.4501
  657SOL    HW2 2013   4.660   2.051   2.237 -0.2829  0.0351  0.9361
  658SOL     OW 2014   5.223   2.311   2.152 -0.5669 -0.0861 -0.4622
  658SOL    HW1 2015   5.159   2.360   2.101 -0.6807  0.5431  0.2593
  658SOL    HW2 2016   5.253   2.373   2.219  1.2781 -0.1558 -1.1730
  659SOL     OW 2017   3.417   0.375   0.431  0.1581 -0.1367 -0.4311
  659SOL    HW1 2018   3.420   0.444   0.365  0.2628  0.7342  0.4462
  659SOL    HW2 2019   3.344   0.399   0.488 -0.7513 -1.5672 -0.9381
  660SOL     OW 2020   5.687   3.209   3.022  0.2980  0.5069  0.0243
  660SOL    HW1 2021   5.690   3.188   2.929  0.4275 -1.1666  0.3894
  660SOL    HW2 2022   5.759   3.271   3.035  0.2804  0.7552 -0.9722
  661SOL     OW 2023   4.642   3.044   2.537 -0.1918  0.2085 -0.5910
  661SOL    HW1 2024   4.666   3.136   2.548 -0.5844  0.1846  0.6679
  661SOL    HW2 2025   4.546   3.045   2.533 -0.1621 -0.0478 -1.8472
  662SOL     OW 2026   5.570   3.490   2.824 -0.0606  0.1982 -0.4044
  662SOL    HW1 2027   5.502   3.424   2.814  0.3952 -0.6968  1.8062
  662SOL    HW2 2028   5.537   3.548   2.892  1.2304 -0.1139  0.5293
  663SOL     OW 2029   1.318   2.375   1.718 -0.1101 -0.5060 -0.0240
  663SOL    HW1 2030   1.266   2.456   1.725 -0.4337 -0.8210  1.6967
  663SOL    HW2 2031   1.298   2.327   1.798  1.0820 -1.7055 -0.4115
  664SOL     OW 2032   4.484   2.276   3.012 -0.0658  0.2566  0.0665
  664SOL    HW1 2033   4.512   2.186   3.029 -0.0078  0.2734  0.0603
  664SOL    HW2 2034   4.566   2.326   3.008 -0.0879  0.2751 -0.1380
  665SOL     OW 2035   2.709   3.793   0.087 -0.1886 -0.2312 -0.0380
  665SOL    HW1 2036   2.667   3.778   0.172  0.4315  0.0482  0.3289
  665SOL    HW2 2037   2.682   3.881   0.062 -0.8402 -0.5312 -0.4162
  666SOL     OW 2038   5.155   2.457   2.751 -0.0021  0.0513  0.3133
  666SOL    HW1 2039   5.147   2.380   2.696  0.7854 -1.2781  1.9862
  666SOL    HW2 2040   5.234   2.443   2.802  0.3873  2.1681  0.3935
  667SOL     OW 2041   5.387   2.374   2.567  0.3570 -0.9116 -0.2615
  667SOL    HW1 2042   5.304   2.352   2.524  0.5491 -0.5868 -0.8063
  667SOL    HW2 2043   5.407   2.297   2.620 -0.2014 -1.0644 -0.2595
  668SOL     OW 2044   5.841   2.800   2.464  0.5547 -0.5523 -0.4414
  668SOL    HW1 2045   5.866   2.790   2.556 -2.1675 -0.6058  0.3962
  668SOL    HW2 2046   5.867   2.889   2.442  0.0587 -0.0527  0.8575
  669SOL     OW 2047   5.979   2.386   3.014  0.1747  0.2170  0.0862
  669SOL    HW1 2048   5.926   2.309   2.994  2.0721 -1.6068  1.6894
  669SOL    HW2 2049   5.951   2.411   3.102 -0.3115  1.3187 -0.3600
  670SOL     OW 2050   6.043   2.527   2.772 -0.4811 -0.0348  0.1576
  670SOL    HW1 2051   6.012   2.494   2.857 -1.0791 -0.6878 -0.2951
  670SOL    HW2 2052   6.016   2.459   2.710  0.9642 -0.1254 -0.4094
  671SOL     OW 2053   4.928   2.996   2.064  0.2051 -0.4332  0.5396
  671SOL    HW1 2054   4.853   3.010   2.123 -0.5759 -1.1400 -0.2540
  671SOL    HW2 2055   4.985   2.936   2.113  0.5704  0.5865  1.4014
  672SOL     OW 2056   1.777   3.288   2.476  0.0650 -0.0760 -0.1820
  672SOL    HW1 2057   1.813   3.222   2.535  1.2253  0.6069 -0.1082
  672SOL    HW2 2058   1.801   3.372   2.515 -1.1777  0.4146 -0.4106
  673SOL     OW 2059   5.601   2.140   1.943  0.1863  0.4277  0.8027
  673SOL    HW1 2060   5.607   2.116   2.035  1.7355 -6.1280 -0.4917
  673SOL    HW2 2061   5.507   2.154   1.928 -0.2699  0.1411  3.0715
  674SOL     OW 2062   5.068   2.138   2.325  0.0407 -0.8970  0.4038
  674SOL    HW1 2063   5.005   2.121   2.255 -0.6358 -0.6822  0.9467
  674SOL    HW2 2064   5.142   2.180   2.282 -0.0001 -1.5485 -0.3130
  675SOL     OW 2065   3.732   1.186   0.084  0.2668  0.2592 -0.0483
  675SOL    HW1 2066   3.816   1.147   0.110 -0.1335  0.7716  2.2894
  675SOL    HW2 2067   3.686   1.199   0.167 -1.7231  0.9266 -1.2003
  676SOL     OW 2068   3.256   0.986  -0.002 -0.3985 -0.6948 -0.8286
  676SOL    HW1 2069   3.351   0.996   0.005 -0.4939 -0.4156  0.1999
  676SOL    HW2 2070   3.230   1.049  -0.070 -0.1719  1.2802  0.8388
  677SOL     OW 2071   3.968   1.114   0.193  0.7721  0.0458 -0.2458
  677SOL    HW1 2072   4.019   1.035   0.173  0.4266 -0.6404  1.4401
  677SOL    HW2 2073   3.978   1.126   0.287 -0.5276  1.0794 -0.2115
  678SOL     OW 2074   5.166   6.251   2.999 -0.0428 -0.1807 -0.0643
  678SOL    HW1 2075   5.119   6.333   3.013 -2.8737 -1.7224  0.1936
  678SOL    HW2 2076   5.174   6.214   3.087 -0.2666 -0.9046 -0.3417
  679SOL     OW 2077   5.497   2.549   2.133 -0.3832 -0.2236  0.1892
  679SOL    HW1 2078   5.412   2.586   2.156 -0.7183 -0.8331 -0.0428
  679SOL    HW2 2079   5.523   2.498   2.210 -0.0301  0.2966  0.4201
  680SOL     OW 2080   4.881   2.518   2.767 -0.2806  0.4440 -0.6781
  680SOL    HW1 2081   4.976   2.510   2.762 -0.3463 -1.8136  0.3003
  680SOL    HW2 2082   4.849   2.466   2.694 -0.7753  0.7036 -0.6484
  681SOL     OW 2083   3.679   4.229   0.211 -0.0616  0.0902 -0.2293
  681SOL    HW1 2084   3.644   4.293   0.149  0.1040 -1.1673 -1.6645
  681SOL    HW2 2085   3.754   4.191   0.166  0.0336 -0.8868  0.7371
  682SOL     OW 2086   1.965   1.048   0.141 -0.8696 -0.0060  0.4430
  682SOL    HW1 2087   1.896   1.012   0.086 -0.9751 -0.1521  0.6690
  682SOL    HW2 2088   2.029   0.977   0.149  0.3627  0.7873 -1.4935
  683SOL     OW 2089   4.718   2.978   2.246 -0.3698  0.2995 -0.3605
  683SOL    HW1 2090   4.712   3.014   2.334  0.9983  0.1065 -0.1624
  683SOL    HW2 2091   4.717   2.883   2.259  1.6501  0.2339 -0.3499
  684SOL     OW 2092   5.093   2.041   2.761 -0.5908 -0.2849  0.5867
  684SOL    HW1 2093   4.997   2.032   2.760 -0.4511 -2.2385  1.1258
  684SOL    HW2 2094   5.121   1.987   2.835  0.9862 -0.4073 -0.0784
  685SOL     OW 2095   5.560   2.822   2.438  0.6982 -0.3298  0.1496
  685SOL    HW1 2096   5.652   2.818   2.415  0.3926  0.4586 -1.3550
  685SOL    HW2 2097   5.540   2.736   2.475  1.5801 -1.2044 -1.3288
  686SOL     OW 2098   3.588   1.523   0.241 -0.2842  0.0791  0.5301
  686SOL    HW1 2099   3.609   1.512   0.148  1.9213  1.2030  0.8470
  686SOL    HW2 2100   3.575   1.434   0.273  2.6963 -0.6945 -0.0928
  687SOL     OW 2101   5.602   2.379   2.333  0.0233 -0.1459 -0.0362
  687SOL    HW1 2102   5.564   2.335   2.409 -1.1892  0.7696 -0.0738
  687SOL    HW2 2103   5.669   2.437   2.369 -0.5273  0.2630  0.3358
  688SOL     OW 2104   2.661   0.947   0.345 -0.2998  0.7669  0.2328
  688SOL    HW1 2105   2.714   0.996   0.408  2.3819  0.3005 -1.4716
  688SOL    HW2 2106   2.632   0.869   0.393  0.2836  1.2091  1.3356
  689SOL     OW 2107   4.706   2.697   2.962  0.4072  0.2501  0.1419
  689SOL    HW1 2108   4.651   2.752   2.906  1.0652 -0.0428 -0.8260
  689SOL    HW2 2109   4.744   2.633   2.902  0.0977 -0.9097  1.1487
  690SOL     OW 2110   5.515   2.633   2.621  0.0570  0.0282  0.4187
  690SOL    HW1 2111   5.445   2.568   2.610 -0.1158 -0.0335  1.7854
  690SOL    HW2 2112   5.587   2.584   2.659 -0.6861  0.9315  3.1966
  691SOL     OW 2113   5.761   2.636   2.005  0.8627  0.0283 -0.1758
  691SOL    HW1 2114   5.676   2.610   2.042  1.6815 -1.8284  0.5700
  691SOL    HW2 2115   5.825   2.597   2.065  2.2427  0.4978 -1.3013
  692SOL     OW 2116   2.375   3.964   0.045 -0.7190 -0.4618  0.1344
  692SOL    HW1 2117   2.402   4.056   0.047  0.8113 -0.8733 -0.2008
  692SOL    HW2 2118   2.413   3.927   0.125 -1.6159 -0.7364  0.4391
  693SOL     OW 2119   1.554   0.997   0.092  0.2725 -0.1927 -0.9961
  693SOL    HW1 2120   1.622   0.971   0.030 -0.6341 -3.3742 -0.8102
  693SOL    HW2 2121   1.546   0.923   0.152 -0.7333  1.6855  1.3557
  694SOL     OW 2122   2.633   4.095   0.010 -0.4845 -0.7987 -0.6027
  694SOL    HW1 2123   2.670   4.156   0.074 -2.4026 -0.1314 -0.0565
  694SOL    HW2 2124   2.626   4.146  -0.070 -1.0383 -0.6492 -0.4597
  695SOL     OW 2125   4.262   1.961   2.652  0.1233  0.1896  0.0631
  695SOL    HW1 2126   4.333   1.923   2.600 -0.8702  0.4890 -1.5846
  695SOL    HW2 2127   4.184   1.912   2.626 -0.8912  2.1614 -0.8121
  696SOL     OW 2128   1.771   2.230   2.216 -0.3006  0.0587  0.3572
  696SOL    HW1 2129   1.850   2.185   2.248 -0.2148  0.3159  0.5082
  696SOL    HW2 2130   1.714   2.159   2.186 -0.4723 -0.2107  1.2752
  697SOL     OW 2131   2.760   0.255   0.106  0.0725  0.2923  0.2779
  697SOL    HW1 2132   2.723   0.279   0.191  1.7144 -0.2233  1.1837
  697SOL    HW2 2133   2.850   0.287   0.109  0.4915 -0.7062 -0.8361
  698SOL     OW 2134   1.533   2.103   1.841  0.4184  0.2025  0.8619
  698SOL    HW1 2135   1.438   2.117   1.846  0.2275 -1.0537  1.0584
  698SOL    HW2 2136   1.562   2.105   1.932  0.4342 -0.3226  0.8703
  699SOL     OW 2137   1.538   2.341   1.331  0.5424 -0.1829  0.2680
  699SOL    HW1 2138   1.583   2.355   1.248  1.2942 -0.7642  0.5680
  699SOL    HW2 2139   1.513   2.248   1.330  0.1378 -0.0803  0.4933
  700SOL     OW 2140   5.355   3.278   2.839  0.1222 -0.0353 -0.0693
  700SOL    HW1 2141   5.270   3.281   2.882 -0.3142  2.6883 -0.9255
  700SOL    HW2 2142   5.335   3.282   2.745  1.1829 -1.6500 -0.4183
  701SOL     OW 2143   2.638   0.675   0.090 -0.0197 -0.2293  0.0427
  701SOL    HW1 2144   2.622   0.752   0.035 -1.0079 -0.3475  0.1516
  701SOL    HW2 2145   2.604   0.601   0.039  1.5552 -0.7015 -0.3663
  702SOL     OW 2146   4.490   1.850   2.548  0.2651 -0.0270  0.1533
  702SOL    HW1 2147   4.583   1.867   2.562  0.6586 -0.6339 -1.5313
  702SOL    HW2 2148   4.478   1.759   2.575  0.0793  0.1623  0.7134
  703SOL     OW 2149   3.394   4.236   0.318 -0.3783  0.3007  0.0230
  703SOL    HW1 2150   3.351   4.321   0.313 -0.4733  0.2050 -1.1612
  703SOL    HW2 2151   3.454   4.235   0.244 -0.1388 -0.5344  0.2108
  704SOL     OW 2152   4.504   3.118   2.174 -0.0370  0.1571 -0.3381
  704SOL    HW1 2153   4.476   3.047   2.115 -1.3804 -0.0930  0.5545
  704SOL    HW2 2154   4.587   3.087   2.211 -0.2495 -0.6367 -0.5071
  705SOL     OW 2155   4.419   3.566   2.890 -0.3234  0.0348  0.0292
  705SOL    HW1 2156   4.403   3.502   2.960 -1.1857 -0.3321 -0.4953
  705SOL    HW2 2157   4.513   3.560   2.873 -0.0971  0.1393  1.1602
  706SOL     OW 2158   3.150   1.330   0.015  0.2759 -0.2484 -0.2077
  706SOL    HW1 2159   3.235   1.374   0.023  0.8444 -1.3257 -0.0531
  706SOL    HW2 2160   3.105   1.377  -0.055  0.7673  0.7010  0.0917
  707SOL     OW 2161   3.186   0.518   0.054  0.6611 -0.2768  0.0989
  707SOL    HW1 2162   3.101   0.494   0.017  0.3833  1.3938 -0.4253
  707SOL    HW2 2163   3.221   0.583  -0.007  1.0491  1.1459  1.7707
  708SOL     OW 2164   4.544   2.268   2.709  0.5794 -0.2249 -0.1487
  708SOL    HW1 2165   4.503   2.189   2.673  0.3719 -0.8554  1.3620
  708SOL    HW2 2166   4.540   2.255   2.804 -1.3079  2.5170  0.2694
  709SOL     OW 2167   4.898   2.478   2.308  0.6371  0.3382 -0.1283
  709SOL    HW1 2168   4.816   2.458   2.352  0.2455  1.9857 -0.0426
  709SOL    HW2 2169   4.964   2.429   2.356 -0.3086 -1.2718 -0.3959
  710SOL     OW 2170   4.301   4.397   0.196  0.5552  0.0146  0.3446
  710SOL    HW1 2171   4.332   4.478   0.156 -0.2488  0.2184  0.1240
  710SOL    HW2 2172   4.365   4.379   0.265  0.6443  0.9290  0.5140
  711SOL     OW 2173   2.780   4.189   0.262 -0.4799 -0.1080  0.3925
  711SOL    HW1 2174   2.698   4.233   0.241 -0.8538 -1.0411 -0.1238
  711SOL    HW2 2175   2.770   4.162   0.354 -1.2325 -1.2367 -0.0016
  712SOL     OW 2176   3.192   1.352   0.366  0.1043 -0.1396  0.3020
  712SOL    HW1 2177   3.121   1.291   0.385 -0.3270  0.8823  2.2632
  712SOL    HW2 2178   3.255   1.301   0.314 -1.2508 -1.5545 -0.0178
  713SOL     OW 2179   5.084   2.562   2.029 -0.2449 -0.0965 -0.4329
  713SOL    HW1 2180   5.152   2.608   1.981 -1.2158  1.0362 -0.7865
  713SOL    HW2 2181   5.030   2.520   1.961 -0.9509  0.5457 -0.2823
  714SOL     OW 2182   2.259   0.962   0.344 -0.0229  0.1945 -0.3170
  714SOL    HW1 2183   2.321   0.997   0.280  0.8673 -1.1081 -0.2276
  714SOL    HW2 2184   2.215   0.890   0.297  0.5555 -0.6956  0.4586
  715SOL     OW 2185   5.584   3.150   2.748 -0.0332  0.3798 -0.1669
  715SOL    HW1 2186   5.572   3.059   2.721  1.2536  0.2487 -0.3547
  715SOL    HW2 2187   5.495   3.184   2.757 -0.5268 -0.7338 -0.6301
  716SOL     OW 2188   5.655   3.139   1.924 -0.2578 -0.2512  0.0034
  716SOL    HW1 2189   5.570   3.142   1.969  0.1742 -1.0866  0.9002
  716SOL    HW2 2190   5.682   3.047   1.929  0.0287 -0.2735 -1.5675
  717SOL     OW 2191   5.860   3.709   2.849  0.0631  0.2090 -0.2063
  717SOL    HW1 2192   5.866   3.749   2.936  0.5021 -1.8968  0.8074
  717SOL    HW2 2193   5.937   3.652   2.844  0.1896  0.4991 -2.1199
  718SOL     OW 2194   5.526   3.687   3.031  0.2490 -0.2403  0.3026
  718SOL    HW1 2195   5.454   3.724   2.982  0.7528 -0.6986 -0.8119
  718SOL    HW2 2196   5.585   3.760   3.049 -0.8917  0.3193  2.0194
  719SOL     OW 2197   4.465   3.086   2.946  0.0947  0.0526  0.3939
  719SOL    HW1 2198   4.372   3.070   2.933 -0.1534  2.4118 -1.2885
  719SOL    HW2 2199   4.472   3.121   3.035 -1.0669  2.3878 -0.3637
  720SOL     OW 2200   1.612   2.010   2.125 -0.0818 -0.1534  0.3582
  720SOL    HW1 2201   1.598   1.919   2.101 -3.1230 -0.1409  1.6639
  720SOL    HW2 2202   1.605   2.012   2.220  0.6110  1.3448  0.4142
  721SOL     OW 2203   5.862   3.363   2.367  0.5940  0.0217 -0.2372
  721SOL    HW1 2204   5.940   3.336   2.416  0.4419 -0.3657 -0.2115
  721SOL    HW2 2205   5.797   3.383   2.433  0.7967  0.7462 -0.2452
  722SOL     OW 2206   5.798   2.532   2.423 -0.4993 -0.0668  0.1416
  722SOL    HW1 2207   5.822   2.624   2.431  0.7015 -0.2987 -0.4842
  722SOL    HW2 2208   5.880   2.488   2.398 -1.2426 -1.1617 -0.4768
  723SOL     OW 2209   3.068   0.712   0.345  0.3159 -0.0617 -0.0195
  723SOL    HW1 2210   3.055   0.723   0.439  0.5583 -1.1517  0.1561
  723SOL    HW2 2211   3.002   0.647   0.320 -0.3342  0.8656 -0.7779
  724SOL     OW 2212   5.372   3.557   2.238  0.4325  0.1553  0.7611
  724SOL    HW1 2213   5.396   3.537   2.328 -0.3996  0.2631  1.0103
  724SOL    HW2 2214   5.427   3.633   2.215  0.8323 -0.0302  1.0820
  725SOL     OW 2215   5.632   4.317   2.854  0.0685  0.3232  0.1396
  725SOL    HW1 2216   5.618   4.412   2.847  0.7702  0.3731 -0.8275
  725SOL    HW2 2217   5.727   4.308   2.860  0.0655 -0.3527 -0.5890
  726SOL     OW 2218   6.411   6.110   2.976  0.3374 -0.1594 -0.4432
  726SOL    HW1 2219   6.378   6.052   3.044 -0.2318  0.2436 -0.3707
  726SOL    HW2 2220   6.466   6.174   3.022 -1.0129  0.8578 -0.1658
  727SOL     OW 2221   4.184   2.240   2.594 -0.1278 -0.1004  0.0668
  727SOL    HW1 2222   4.214   2.255   2.684 -1.1223 -0.4173  0.4732
  727SOL    HW2 2223   4.179   2.145   2.586  0.0299 -0.0749 -0.3478
  728SOL     OW 2224   5.532   3.426   2.019 -0.2694 -0.4763 -0.5858
  728SOL    HW1 2225   5.477   3.479   2.076  0.8790 -0.6291  0.6955
  728SOL    HW2 2226   5.494   3.338   2.024  0.7856 -0.8727  1.3121
  729SOL     OW 2227   2.863   0.530   0.205 -0.1359  0.8584  0.0300
  729SOL    HW1 2228   2.802   0.600   0.180  0.7685  1.7323  0.2278
  729SOL    HW2 2229   2.911   0.511   0.124 -0.0257  0.8227  0.1049
  730SOL     OW 2230   5.362   2.846   2.125 -0.7315  0.3027 -0.0709
  730SOL    HW1 2231   5.353   2.815   2.215 -0.5446 -1.1624 -0.5368
  730SOL    HW2 2232   5.452   2.878   2.120 -0.7738  0.4899  0.2812
  731SOL     OW 2233   5.769   3.577   2.060  0.2998  0.4064 -0.4395
  731SOL    HW1 2234   5.825   3.500   2.074 -0.1625  0.5427  3.1847
  731SOL    HW2 2235   5.682   3.540   2.042  0.1992  0.0318  0.7176
  732SOL     OW 2236   2.691   0.736   0.523  0.2712 -0.4095  0.0180
  732SOL    HW1 2237   2.779   0.769   0.503 -0.0178  0.3377 -0.0657
  732SOL    HW2 2238   2.694   0.716   0.616  0.6280 -0.6981 -0.0531
  733SOL     OW 2239   3.980   0.782   0.456 -0.0915 -0.5948 -0.7170
  733SOL    HW1 2240   4.061   0.744   0.422  0.3404 -0.2610 -0.0856
  733SOL    HW2 2241   3.934   0.708   0.497  0.3632 -0.6034 -0.2090
  734SOL     OW 2242   5.166   2.862   2.703 -0.1546 -0.4717 -0.3279
  734SOL    HW1 2243   5.166   2.897   2.792  1.4190  2.4894 -1.3622
  734SOL    HW2 2244   5.076   2.875   2.673 -0.0384  1.2426 -0.0669
  735SOL     OW 2245   5.395   2.137   2.693  0.5611 -0.3989  0.0555
  735SOL    HW1 2246   5.411   2.153   2.786 -0.8743  1.0260  0.0809
  735SOL    HW2 2247   5.320   2.077   2.692 -0.5862  1.0051 -0.1791
  736SOL     OW 2248   4.804   3.303   2.315  0.3319 -0.2705 -0.2610
  736SOL    HW1 2249   4.871   3.242   2.346  0.6726 -0.4704 -1.3549
  736SOL    HW2 2250   4.813   3.379   2.372  0.1617 -1.0728  0.8701
  737SOL     OW 2251   4.011   4.450   0.270  0.0034 -0.2401  0.2647
  737SOL    HW1 2252   4.104   4.436   0.253 -0.2097 -2.0937  0.4476
  737SOL    HW2 2253   4.007   4.479   0.361  0.1691 -4.5711  1.8391
  738SOL     OW 2254   4.661   2.740   2.371 -0.5810 -0.0870 -0.1515
  738SOL    HW1 2255   4.649   2.650   2.341 -1.4211  0.1956 -0.6915
  738SOL    HW2 2256   4.628   2.740   2.460 -0.0433 -0.4404  0.0542
  739SOL     OW 2257   2.701   4.268   0.499  0.2785 -0.2129 -0.4341
  739SOL    HW1 2258   2.615   4.269   0.456  0.5606 -0.6649 -1.0192
  739SOL    HW2 2259   2.700   4.345   0.557  0.1258  0.7890 -1.7274
  740SOL     OW 2260   4.342   2.652   1.760 -0.1038  0.4770  0.0519
  740SOL    HW1 2261   4.292   2.702   1.824 -0.1120  0.2833  0.1994
  740SOL    HW2 2262   4.393   2.590   1.813  1.4458  1.6693  0.0101
  741SOL     OW 2263   5.959   2.924   2.938  0.0540  0.1776  0.0576
  741SOL    HW1 2264   5.875   2.912   2.983 -1.3157  2.1792 -1.7698
  741SOL    HW2 2265   6.021   2.943   3.009 -1.5642  1.1209  1.2936
  742SOL     OW 2266   4.734   2.398   2.110  0.2060 -0.3086 -0.1349
  742SOL    HW1 2267   4.810   2.444   2.146  1.8539 -2.8407 -0.1742
  742SOL    HW2 2268   4.767   2.313   2.082 -3.0071 -2.4167  1.7986
  743SOL     OW 2269   1.533   3.276   2.082  0.1948  0.1413 -0.2410
  743SOL    HW1 2270   1.465   3.221   2.042  0.5755 -0.7968  0.3518
  743SOL    HW2 2271   1.501   3.293   2.170  0.1659  0.7402 -0.3639
  744SOL     OW 2272   2.949   0.355   0.423  0.0221 -0.8338 -0.0978
  744SOL    HW1 2273   2.880   0.322   0.480  0.3694 -1.5164 -0.0674
  744SOL    HW2 2274   2.911   0.433   0.382 -0.6071 -0.9561  0.2486
  745SOL     OW 2275   5.692   3.910   3.039 -0.1494  0.6559  0.0505
  745SOL    HW1 2276   5.777   3.907   3.082 -0.1018 -0.0235 -0.0730
  745SOL    HW2 2277   5.712   3.930   2.947 -0.1834  1.2082  0.1577
  746SOL     OW 2278   4.186   0.373   0.412  0.0020  0.1837 -0.2722
  746SOL    HW1 2279   4.149   0.362   0.324  0.5660 -1.5085 -0.3225
  746SOL    HW2 2280   4.119   0.423   0.459 -0.3879  0.9780 -1.5866
  747SOL     OW 2281   5.202   2.642   2.548  0.0803  0.0298 -0.5548
  747SOL    HW1 2282   5.230   2.726   2.585 -0.3673  0.2400 -0.6827
  747SOL    HW2 2283   5.179   2.588   2.624 -0.3370  0.2802 -0.4968
  748SOL     OW 2284   5.106   2.666   3.011  0.2892  0.3851 -0.7802
  748SOL    HW1 2285   5.062   2.746   2.985  2.2913  1.7823 -0.0783
  748SOL    HW2 2286   5.122   2.620   2.929 -1.5977  0.2372 -1.1224
  749SOL     OW 2287   4.228   0.692   0.353  0.9836  0.3455  0.4936
  749SOL    HW1 2288   4.296   0.648   0.404  3.2955  0.4398 -2.2693
  749SOL    HW2 2289   4.218   0.638   0.274 -0.4436  1.6339 -0.2665
  750SOL     OW 2290   5.513   3.803   2.236 -0.3062 -0.0266 -0.0552
  750SOL    HW1 2291   5.473   3.845   2.160  0.4517  0.0945 -0.3997
  750SOL    HW2 2292   5.467   3.841   2.311 -1.4858 -0.6002 -0.4651
  751SOL     OW 2293   5.103   2.942   2.957  0.4951 -0.0038  0.5649
  751SOL    HW1 2294   5.141   3.015   3.007  0.1011  0.7830 -0.2524
  751SOL    HW2 2295   5.019   2.976   2.927  0.5587 -0.6032 -0.2988
  752SOL     OW 2296   5.593   2.854   1.913  0.3452 -0.6054 -0.0750
  752SOL    HW1 2297   5.559   2.842   1.825  0.2742 -1.0601  0.0122
  752SOL    HW2 2298   5.648   2.777   1.929  1.3511  0.0745 -0.1813
  753SOL     OW 2299   1.895   3.024   2.544 -0.0994 -0.4522 -0.4703
  753SOL    HW1 2300   1.936   3.013   2.630  0.6570  3.5742 -0.1442
  753SOL    HW2 2301   1.968   3.021   2.482 -0.1400  0.2205 -0.5614
  754SOL     OW 2302   4.702   3.276   2.859  0.2674 -0.1581 -0.7098
  754SOL    HW1 2303   4.716   3.366   2.891 -1.3293 -0.5088  1.1179
  754SOL    HW2 2304   4.626   3.245   2.908 -1.5413 -1.2517 -3.9609
  755SOL     OW 2305   6.216   6.368   2.967 -0.0711  0.0270 -0.4649
  755SOL    HW1 2306   6.246   6.337   2.882  2.2032  1.0993 -0.1192
  755SOL    HW2 2307   6.296   6.382   3.018 -1.2217  1.7054  1.0288
  756SOL     OW 2308   4.305   2.290   2.348 -0.1290 -0.4394  0.2941
  756SOL    HW1 2309   4.324   2.199   2.323  1.8703 -0.0649  0.2587
  756SOL    HW2 2310   4.279   2.285   2.440 -2.6887 -1.2993 -0.4100
  757SOL     OW 2311   4.116   1.394   0.342  0.3364 -0.2323 -0.1804
  757SOL    HW1 2312   4.183   1.342   0.386 -0.5007  0.2704  1.7902
  757SOL    HW2 2313   4.079   1.335   0.276  1.0760 -1.2985  0.3347
  758SOL     OW 2314   2.274   4.205   0.190  0.2629 -0.0745 -0.0095
  758SOL    HW1 2315   2.196   4.228   0.141  1.4972  0.4828 -1.8107
  758SOL    HW2 2316   2.242   4.183   0.278 -1.5887  3.2187  0.2951
  759SOL     OW 2317   5.055   3.552   2.849  0.6098  0.4940  0.2114
  759SOL    HW1 2318   5.085   3.464   2.871 -0.7411 -0.3439 -1.0808
  759SOL    HW2 2319   4.961   3.542   2.835  0.3162  2.2943  0.7035
  760SOL     OW 2320   3.902   4.081   0.091  0.8521  0.0655  0.4045
  760SOL    HW1 2321   3.921   4.003   0.038 -1.1817 -0.7561  0.7977
  760SOL    HW2 2322   3.963   4.147   0.058  0.5208 -0.7539 -2.1136
  761SOL     OW 2323   5.445   2.129   2.955 -0.1695 -0.1893  0.2706
  761SOL    HW1 2324   5.404   2.091   3.033 -1.7037 -1.1466 -0.9525
  761SOL    HW2 2325   5.532   2.087   2.952  0.1244  0.2619  1.7299
  762SOL     OW 2326   5.179   3.164   2.264 -0.0698  0.3676 -0.0175
  762SOL    HW1 2327   5.252   3.105   2.250 -1.6147 -1.3695 -1.2181
  762SOL    HW2 2328   5.170   3.211   2.181 -0.9836 -0.2437 -0.2769
  763SOL     OW 2329   3.090   1.562   0.490 -0.6380  0.2571  0.1374
  763SOL    HW1 2330   3.089   1.556   0.585 -0.6630  0.2170  0.1349
  763SOL    HW2 2331   3.122   1.476   0.460 -0.6257  0.2710  0.1100
  764SOL     OW 2332   5.764   1.700   2.325 -0.0937 -0.2297 -0.0179
  764SOL    HW1 2333   5.834   1.719   2.263  1.9563  0.8007  2.4410
  764SOL    HW2 2334   5.808   1.666   2.403 -2.4883 -1.1119  1.0837
  765SOL     OW 2335   6.021   2.152   2.728  0.4186 -1.0982 -0.5260
  765SOL    HW1 2336   6.023   2.157   2.824 -1.3263 -0.5281 -0.4918
  765SOL    HW2 2337   6.094   2.093   2.706  1.9329  0.0859  1.0184
  766SOL     OW 2338   5.809   2.218   2.556 -0.1075 -0.0836  0.0285
  766SOL    HW1 2339   5.848   2.185   2.637 -0.9325 -1.5990 -0.1505
  766SOL    HW2 2340   5.828   2.311   2.556 -1.6524  0.3371  2.8781
  767SOL     OW 2341   4.168   2.759   2.560 -0.2823 -0.5293  0.5835
  767SOL    HW1 2342   4.171   2.670   2.524  1.9201 -0.3151  0.1293
  767SOL    HW2 2343   4.191   2.816   2.486 -0.3312  0.3062  1.2007
  768SOL     OW 2344   5.359   3.902   2.015 -0.0094  0.0629  0.3292
  768SOL    HW1 2345   5.271   3.873   1.989  0.9669 -2.7524 -0.2571
  768SOL    HW2 2346   5.374   3.982   1.965 -2.0037  0.2934  0.0035
  769SOL     OW 2347   4.248   4.036   1.090  0.1304 -0.4192  0.4343
  769SOL    HW1 2348   4.235   4.124   1.055  2.4405 -0.3004 -0.3167
  769SOL    HW2 2349   4.325   4.044   1.147 -1.7272 -1.2563  3.2933
  770SOL     OW 2350   4.335   3.427   1.150  0.1833  0.1562  0.0308
  770SOL    HW1 2351   4.265   3.371   1.116  0.2491 -0.7656  1.3533
  770SOL    HW2 2352   4.290   3.508   1.176  0.0478  0.6658 -1.6319
  771SOL     OW 2353   3.613   2.317   2.717 -0.2851 -0.4857 -0.0362
  771SOL    HW1 2354   3.707   2.331   2.711 -0.4287  0.1769 -1.0533
  771SOL    HW2 2355   3.601   2.264   2.796  1.0443 -1.6597 -0.5802
  772SOL     OW 2356   4.987   4.112   1.568  0.1368  0.2812  0.4368
  772SOL    HW1 2357   5.008   4.150   1.483 -0.2330 -0.4056  0.0250
  772SOL    HW2 2358   4.892   4.096   1.565  0.1287  0.2022  0.9524
  773SOL     OW 2359   1.885   3.793   1.502 -0.3448 -0.1527 -0.4268
  773SOL    HW1 2360   1.869   3.799   1.596  0.7111 -0.3698 -0.2141
  773SOL    HW2 2361   1.891   3.699   1.485  0.5735 -0.0975 -0.4905
  774SOL     OW 2362   4.140   4.135   0.510  0.0837  0.1155  0.0174
  774SOL    HW1 2363   4.063   4.171   0.464  0.8699  0.2905 -1.2233
  774SOL    HW2 2364   4.165   4.059   0.457 -0.4548 -1.2062  1.5844
  775SOL     OW 2365   1.043   3.962   0.425 -0.1491 -0.4668  0.0305
  775SOL    HW1 2366   1.016   4.054   0.420  0.0791 -0.3592  0.6796
  775SOL    HW2 2367   0.970   3.914   0.386  0.2442  0.0649 -1.4236
  776SOL     OW 2368   4.713   4.147   1.538 -0.4740  0.0268 -0.5790
  776SOL    HW1 2369   4.663   4.162   1.618 -0.8159  0.4696 -0.8699
  776SOL    HW2 2370   4.674   4.069   1.500  1.0705 -1.4767  0.7543
  777SOL     OW 2371   1.139   4.158   0.768  0.5026 -0.5036 -0.1951
  777SOL    HW1 2372   1.131   4.112   0.851  1.2633  0.8246  0.6566
  777SOL    HW2 2373   1.167   4.091   0.706 -0.2538 -1.5543  0.5663
  778SOL     OW 2374   1.166   4.422   1.678 -0.1998 -0.3223  0.2611
  778SOL    HW1 2375   1.183   4.336   1.715 -2.3333 -0.0510  2.1391
  778SOL    HW2 2376   1.113   4.405   1.600 -1.0110 -0.7486  0.8820
  779SOL     OW 2377   5.061   4.119   1.260  0.0147 -0.5506  0.9388
  779SOL    HW1 2378   5.084   4.036   1.302  0.3753 -0.3825  1.0803
  779SOL    HW2 2379   5.056   4.097   1.167  0.0371 -0.7480  0.9827
  780SOL     OW 2380   3.944   4.275   0.911 -0.9277 -0.0380  0.1895
  780SOL    HW1 2381   4.008   4.219   0.867 -0.0706  0.6581  0.5171
  780SOL    HW2 2382   3.888   4.308   0.841  0.7621  1.5069 -0.5094
  781SOL     OW 2383   3.090   2.151   2.879  0.0858 -0.1800 -0.0926
  781SOL    HW1 2384   3.026   2.168   2.948 -1.0527 -0.5987 -1.0076
  781SOL    HW2 2385   3.155   2.220   2.890 -1.3146  1.2064 -0.0549
  782SOL     OW 2386   1.717   4.387   1.794 -0.0396 -0.1907  0.6045
  782SOL    HW1 2387   1.634   4.339   1.802 -0.7730  0.6374 -1.3708
  782SOL    HW2 2388   1.765   4.366   1.874 -1.0787 -2.7243  0.6551
  783SOL     OW 2389   4.434   3.795   0.816  0.3500 -0.5324  0.3341
  783SOL    HW1 2390   4.521   3.756   0.828  0.2723 -0.7046  0.3440
  783SOL    HW2 2391   4.385   3.730   0.766 -0.0786 -0.8575  1.1592
  784SOL     OW 2392   1.298   4.751   0.780  0.4941  0.2198 -0.0036
  784SOL    HW1 2393   1.362   4.681   0.771 -0.5744 -0.9071  0.8396
  784SOL    HW2 2394   1.222   4.721   0.730  0.3397  1.1940 -0.3781
  785SOL     OW 2395   4.513   3.922   1.449 -0.4998 -0.1600  0.1409
  785SOL    HW1 2396   4.449   3.993   1.444 -0.5903 -0.2876 -0.5970
  785SOL    HW2 2397   4.461   3.843   1.462 -0.5549 -0.3422 -1.0446
  786SOL     OW 2398   3.513   5.991   3.041 -0.0927 -0.1369  0.6754
  786SOL    HW1 2399   3.528   5.924   3.107 -0.9822 -0.1162  0.9006
  786SOL    HW2 2400   3.422   5.979   3.014  0.4787 -0.6583 -1.1324
  787SOL     OW 2401   1.468   4.114   1.502 -0.7988 -0.2686 -0.9494
  787SOL    HW1 2402   1.373   4.103   1.511 -0.6780 -0.2231  0.6061
  787SOL    HW2 2403   1.499   4.026   1.479 -1.0331 -0.7523  0.4694
  788SOL     OW 2404   1.166   4.132   0.073 -0.2126  0.6347  0.3622
  788SOL    HW1 2405   1.138   4.155   0.162  3.0110 -0.1931  1.7196
  788SOL    HW2 2406   1.253   4.094   0.084  0.1768  0.1796 -3.1618
  789SOL     OW 2407   1.050   4.294   1.451  0.1163 -0.4822  0.3529
  789SOL    HW1 2408   1.120   4.229   1.445 -0.3962 -0.9076 -1.7855
  789SOL    HW2 2409   0.987   4.255   1.512 -0.7104 -2.6161 -1.7072
  790SOL     OW 2410   1.367   4.667   1.399 -0.2437 -0.0165  0.3763
  790SOL    HW1 2411   1.375   4.699   1.489 -2.8723  1.7938  0.0787
  790SOL    HW2 2412   1.342   4.575   1.409 -2.1707  0.5778  1.6143
  791SOL     OW 2413   0.823   3.870   0.280  0.2714 -0.0794 -0.1228
  791SOL    HW1 2414   0.850   3.836   0.195 -0.2691 -0.6031 -0.0927
  791SOL    HW2 2415   0.800   3.792   0.331  1.0130  0.1887  0.6577
  792SOL     OW 2416   0.799   3.592   0.085 -0.1734 -0.3083 -0.0737
  792SOL    HW1 2417   0.754   3.629   0.009 -0.3356 -0.1733  0.0909
  792SOL    HW2 2418   0.889   3.625   0.077 -0.8133  1.9389  1.2573
  793SOL     OW 2419   1.079   4.223   0.301  0.3876  0.2852  0.0136
  793SOL    HW1 2420   1.146   4.263   0.357  0.0764  1.1515 -0.2053
  793SOL    HW2 2421   1.002   4.278   0.315 -0.1156 -0.3788 -0.1490
  794SOL     OW 2422   4.453   4.338   1.324 -0.4502  0.4810 -0.6028
  794SOL    HW1 2423   4.541   4.371   1.342 -0.4753  0.7965 -1.0341
  794SOL    HW2 2424   4.395   4.398   1.371 -0.3737 -1.0666  1.6382
  795SOL     OW 2425   4.669   3.666   0.830 -0.0903  0.3796  0.0114
  795SOL    HW1 2426   4.662   3.623   0.915  0.7334  0.1839 -0.0034
  795SOL    HW2 2427   4.762   3.656   0.806 -0.1986  0.8956 -0.6612
  796SOL     OW 2428   0.785   4.121   0.391  0.1915  0.4493 -0.2929
  796SOL    HW1 2429   0.754   4.038   0.355 -0.5035  0.9247 -0.8276
  796SOL    HW2 2430   0.718   4.145   0.455  0.8186  0.1932  0.4722
  797SOL     OW 2431   1.229   4.354   1.107  0.3717  0.4875  0.0768
  797SOL    HW1 2432   1.242   4.417   1.178  0.6207 -0.6561  1.0630
  797SOL    HW2 2433   1.314   4.349   1.063  0.4078  0.6943  0.1235
  798SOL     OW 2434   2.775   5.927   2.992  0.6200 -0.1326 -0.4277
  798SOL    HW1 2435   2.762   5.889   2.905 -0.2765 -0.6550 -0.0894
  798SOL    HW2 2436   2.795   6.019   2.976 -0.0588 -0.1059 -1.1699
  799SOL     OW 2437   0.993   3.937   1.192  0.0102  0.2705 -0.2702
  799SOL    HW1 2438   0.905   3.907   1.217 -0.7653  2.2893 -0.3721
  799SOL    HW2 2439   1.047   3.919   1.269 -0.4261 -1.1403 -0.2599
  800SOL     OW 2440   1.338   3.801   1.112  0.1038  0.0519  0.2772
  800SOL    HW1 2441   1.302   3.762   1.033 -0.7204 -0.6941  0.9884
  800SOL    HW2 2442   1.433   3.796   1.100 -0.0115 -0.4115 -0.5010
  801SOL     OW 2443   0.564   4.167   0.547  0.2861 -0.2288  0.1169
  801SOL    HW1 2444   0.495   4.123   0.598 -1.1265  0.1529 -1.3943
  801SOL    HW2 2445   0.519   4.238   0.502  1.8411  0.5114 -0.3407
  802SOL     OW 2446   4.888   3.797   1.801  0.1841  0.3753 -0.2275
  802SOL    HW1 2447   4.926   3.838   1.724 -0.6697  0.4951 -0.6002
  802SOL    HW2 2448   4.893   3.703   1.783  0.1101  0.3984 -0.3750
  803SOL     OW 2449   4.535   3.459   1.515 -0.1270 -0.4311  0.7265
  803SOL    HW1 2450   4.506   3.380   1.468 -0.2065  0.0280 -0.0168
  803SOL    HW2 2451   4.560   3.427   1.602  1.8634 -1.6635 -0.1953
  804SOL     OW 2452   4.505   4.082   1.197 -0.5695  0.4119  0.4059
  804SOL    HW1 2453   4.570   4.019   1.228  0.8811  1.1649 -0.9520
  804SOL    HW2 2454   4.493   4.143   1.270  1.6868  1.3324  0.0732
  805SOL     OW 2455   0.669   4.323   0.802 -0.1173  0.5114  0.0302
  805SOL    HW1 2456   0.656   4.263   0.728  2.5402  1.1847 -1.0907
  805SOL    HW2 2457   0.600   4.389   0.792 -1.9005 -1.2193  0.1887
  806SOL     OW 2458   0.923   3.784   0.709 -0.5442 -0.0527 -0.1419
  806SOL    HW1 2459   0.939   3.832   0.790 -1.8507  1.2649 -0.6248
  806SOL    HW2 2460   0.960   3.840   0.640 -0.1350 -0.7908 -0.5319
  807SOL     OW 2461   1.605   4.197   0.979  0.4553  0.4126 -0.7280
  807SOL    HW1 2462   1.687   4.189   0.929  1.0252  0.1560  0.2252
  807SOL    HW2 2463   1.540   4.156   0.922  1.4605 -1.7852 -0.4326
  808SOL     OW 2464   3.990   6.478   3.057  0.0258 -0.3157 -0.1448
  808SOL    HW1 2465   3.909   6.520   3.086 -0.2027 -1.6723  1.3385
  808SOL    HW2 2466   3.963   6.425   2.981  0.0859  1.2065 -1.2756
  809SOL     OW 2467   4.811   4.599   1.072  1.0044 -0.1358  0.1655
  809SOL    HW1 2468   4.857   4.683   1.080  1.6320 -0.3558 -0.9105
  809SOL    HW2 2469   4.878   4.534   1.093  0.7767 -0.4029  0.0547
  810SOL     OW 2470   5.554   4.173   1.795  0.7471 -0.2017  0.3195
  810SOL    HW1 2471   5.490   4.185   1.864  0.1493  1.9214 -0.5348
  810SOL    HW2 2472   5.535   4.086   1.760 -1.8165  0.4145 -0.0334
  811SOL     OW 2473   1.208   4.069   1.476  0.2881  0.6958  0.7374
  811SOL    HW1 2474   1.186   4.032   1.562  1.1544  1.9054  1.5154
  811SOL    HW2 2475   1.205   3.994   1.416 -3.8898  0.3917  1.0747
  812SOL     OW 2476   4.258   4.301   1.084  0.3826 -0.0883  0.1783
  812SOL    HW1 2477   4.332   4.324   1.141  0.8928 -1.9617  0.3172
  812SOL    HW2 2478   4.286   4.330   0.997  1.0644 -0.2975  0.3175
  813SOL     OW 2479   4.324   4.131   1.489  0.1175  0.3886  0.2113
  813SOL    HW1 2480   4.372   4.206   1.455  1.8408 -0.8515 -0.2853
  813SOL    HW2 2481   4.281   4.163   1.569 -1.1833  2.4587 -1.2381
  814SOL     OW 2482   0.887   4.120   0.084 -0.2324  0.2624  0.1744
  814SOL    HW1 2483   0.980   4.122   0.061 -0.7258  1.4507 -1.9932
  814SOL    HW2 2484   0.885   4.093   0.176  2.2192 -0.1272  0.1653
  815SOL     OW 2485   1.349   4.382   1.373 -0.7693 -0.0490 -0.3804
  815SOL    HW1 2486   1.348   4.293   1.408 -1.2287  0.4867  1.0693
  815SOL    HW2 2487   1.441   4.402   1.359 -0.7154 -1.1091 -1.7643
  816SOL     OW 2488   4.880   3.872   0.981 -0.2606  0.0404 -0.2782
  816SOL    HW1 2489   4.849   3.818   1.053 -3.2912  0.5628 -1.0684
  816SOL    HW2 2490   4.894   3.809   0.909  2.7152 -0.4733  0.5900
  817SOL     OW 2491   3.685   6.095   2.871 -0.6129 -0.0452 -0.2199
  817SOL    HW1 2492   3.751   6.026   2.866  1.8164  2.1393 -0.0618
  817SOL    HW2 2493   3.623   6.064   2.938  0.8521 -1.6716  0.4531
  818SOL     OW 2494   1.330   4.435   0.805 -0.2517 -0.1983 -0.7473
  818SOL    HW1 2495   1.374   4.385   0.736 -0.8694  0.2640 -1.4958
  818SOL    HW2 2496   1.397   4.496   0.836 -0.1327 -0.0090 -1.3517
  819SOL     OW 2497   1.768   3.922   0.995  0.4059  0.0126  0.2218
  819SOL    HW1 2498   1.842   3.917   1.056  0.2610  0.8792  0.4804
  819SOL    HW2 2499   1.693   3.889   1.045  0.5642 -0.6375  0.0379
  820SOL     OW 2500   4.525   3.990   0.546  0.4227 -0.3761 -0.5633
  820SOL    HW1 2501   4.478   3.906   0.545  1.5658 -1.0512 -2.0759
  820SOL    HW2 2502   4.585   3.983   0.621 -0.6557 -0.2027  0.3331
  821SOL     OW 2503   0.710   4.081   0.994 -0.0151 -0.2519 -0.0493
  821SOL    HW1 2504   0.697   4.129   0.912  0.2747 -0.5317 -0.2626
  821SOL    HW2 2505   0.654   4.004   0.986  0.7878 -0.8216 -0.4432
  822SOL     OW 2506   1.973   4.027   1.455 -0.4307 -0.2605 -0.3750
  822SOL    HW1 2507   1.938   3.942   1.481  2.5622 -1.7036 -0.5888
  822SOL    HW2 2508   1.973   4.079   1.535 -3.3651  0.0533 -0.4823
  823SOL     OW 2509   5.113   3.860   1.336  0.2107  1.1119  0.1467
  823SOL    HW1 2510   5.138   3.873   1.428 -3.0436  3.7592  0.8727
  823SOL    HW2 2511   5.074   3.773   1.334  1.5096  0.4806  0.9298
  824SOL     OW 2512   4.201   3.817   0.151 -0.3546  0.0242  0.1755
  824SOL    HW1 2513   4.226   3.845   0.240 -0.1631 -2.9978  1.2043
  824SOL    HW2 2514   4.115   3.777   0.162 -0.1351 -0.7844 -0.9122
  825SOL     OW 2515   0.484   3.761   0.245 -0.2787  0.3837 -0.7590
  825SOL    HW1 2516   0.413   3.826   0.249  0.8388  1.7414 -1.9742
  825SOL    HW2 2517   0.530   3.781   0.164  0.2828 -1.7970 -1.0310
  826SOL     OW 2518   5.212   4.260   1.730 -0.2723 -0.2217  0.3822
  826SOL    HW1 2519   5.145   4.200   1.697 -1.0670  0.5598  0.5436
  826SOL    HW2 2520   5.175   4.347   1.718  0.7834  0.2409  0.3460
  827SOL     OW 2521   1.509   4.393   0.591  0.3328 -0.2489  0.2704
  827SOL    HW1 2522   1.535   4.312   0.546 -0.4835  0.3712 -1.4051
  827SOL    HW2 2523   1.584   4.414   0.646  0.6140 -2.0802  0.6737
  828SOL     OW 2524   1.750   4.243   1.539 -0.4626  0.0734 -0.3390
  828SOL    HW1 2525   1.692   4.210   1.607 -1.8649  0.6831 -1.1920
  828SOL    HW2 2526   1.748   4.175   1.471 -0.2643  0.1477 -0.4208
  829SOL     OW 2527   1.897   3.781   1.214 -1.0113 -0.0365 -0.0155
  829SOL    HW1 2528   1.890   3.759   1.307 -0.7223 -1.7689 -0.3855
  829SOL    HW2 2529   1.824   3.735   1.173 -0.2163 -0.5534 -0.8654
  830SOL     OW 2530   4.747   4.077   0.742  0.5127 -0.1475  0.1310
  830SOL    HW1 2531   4.668   4.110   0.785  1.0457 -0.3383  1.2700
  830SOL    HW2 2532   4.786   4.017   0.805  1.8159  0.2851 -0.2273
  831SOL     OW 2533   4.966   4.374   1.094  0.1842  0.2270 -0.4293
  831SOL    HW1 2534   5.009   4.316   1.157 -0.6617  0.0369 -0.0153
  831SOL    HW2 2535   4.929   4.314   1.029 -0.6417  0.2895 -0.0319
  832SOL     OW 2536   1.267   4.078   1.036 -0.4595 -0.1481 -0.4695
  832SOL    HW1 2537   1.217   4.014   1.087 -0.1948  0.2424  0.2876
  832SOL    HW2 2538   1.252   4.162   1.080  1.5082 -0.1359  0.2820
  833SOL     OW 2539   0.959   3.994   0.934 -0.4523  0.5227  0.2433
  833SOL    HW1 2540   0.871   4.022   0.959 -0.1522  1.4795  0.2593
  833SOL    HW2 2541   1.002   3.973   1.017 -0.6268  0.1420  0.2415
  834SOL     OW 2542   1.306   4.000   0.300  1.0070 -0.5278  0.1928
  834SOL    HW1 2543   1.215   4.001   0.332  0.7724 -1.8223 -0.3818
  834SOL    HW2 2544   1.359   4.017   0.378  0.2506  1.5386  0.3268
  835SOL     OW 2545   1.094   4.538   0.636 -0.1754  0.2758  0.6554
  835SOL    HW1 2546   1.131   4.482   0.568 -0.4893 -1.4038  1.8336
  835SOL    HW2 2547   1.018   4.579   0.594  0.5880  0.5749 -0.4963
  836SOL     OW 2548   1.432   4.054   0.825 -0.8149 -0.6090  0.0530
  836SOL    HW1 2549   1.376   4.057   0.903 -0.1455 -2.3926  0.6495
  836SOL    HW2 2550   1.371   4.061   0.752 -1.4823  0.8736  0.7079
  837SOL     OW 2551   2.516   1.921   0.162  0.4867  0.3170  0.0692
  837SOL    HW1 2552   2.574   1.859   0.206 -0.1545 -0.3173  0.0570
  837SOL    HW2 2553   2.546   1.922   0.071  0.3182 -0.2112  0.0042
  838SOL     OW 2554   4.259   4.240   2.728 -0.0700  0.1883 -0.2852
  838SOL    HW1 2555   4.294   4.254   2.817 -0.3998 -0.3561 -0.0656
  838SOL    HW2 2556   4.259   4.327   2.689 -0.2554  0.4936  0.3745
  839SOL     OW 2557   1.506   4.226   1.862 -0.1763  0.5346 -0.7289
  839SOL    HW1 2558   1.423   4.230   1.814 -0.9543 -1.1225  0.3783
  839SOL    HW2 2559   1.523   4.133   1.873  1.3541  0.8530 -0.0765
  840SOL     OW 2560   2.080   4.000   2.805  0.0929  0.6298  0.2448
  840SOL    HW1 2561   1.998   3.962   2.834  0.1458  1.9054  2.2724
  840SOL    HW2 2562   2.111   3.942   2.736 -2.1965 -0.1935 -0.1494
  841SOL     OW 2563   3.896   1.153   0.470 -0.2043 -0.0958 -0.1817
  841SOL    HW1 2564   3.835   1.081   0.448  0.8335 -0.4626 -2.0886
  841SOL    HW2 2565   3.849   1.232   0.443 -0.5065 -0.2371 -0.0819
  842SOL     OW 2566   4.497   4.498   2.338  0.0388  0.3729 -0.1072
  842SOL    HW1 2567   4.490   4.431   2.269  2.4231  0.2138 -0.3052
  842SOL    HW2 2568   4.431   4.474   2.402 -0.5343 -0.9738 -1.1567
  843SOL     OW 2569   5.218   3.703   2.536 -0.1593 -0.4213  0.0157
  843SOL    HW1 2570   5.228   3.775   2.474 -0.5264  0.1869  0.6454
  843SOL    HW2 2571   5.300   3.654   2.528  0.0594  0.0091 -0.4916
  844SOL     OW 2572   5.423   4.192   2.783 -0.5964  0.2202 -0.3072
  844SOL    HW1 2573   5.377   4.159   2.861 -1.5475 -1.1946 -1.4097
  844SOL    HW2 2574   5.502   4.233   2.817 -0.4368 -1.3469  1.3439
  845SOL     OW 2575   5.203   4.532   3.014  0.3742  0.6743 -0.9121
  845SOL    HW1 2576   5.296   4.556   3.020  0.5681  0.0107 -1.1650
  845SOL    HW2 2577   5.177   4.516   3.104  0.7548 -0.0146 -0.9105
  846SOL     OW 2578   4.448   4.970   2.779 -0.0703 -0.0578  0.0067
  846SOL    HW1 2579   4.360   5.008   2.780 -0.8731 -1.8515  0.8459
  846SOL    HW2 2580   4.449   4.908   2.851  1.7587 -0.4110 -0.2631
  847SOL     OW 2581   4.623   3.894   1.970 -0.0189  0.2861  0.4471
  847SOL    HW1 2582   4.707   3.878   1.926 -0.1932 -0.1444  0.2613
  847SOL    HW2 2583   4.565   3.827   1.935 -0.9711  1.7057 -0.8486
  848SOL     OW 2584   4.725   3.748   2.683  0.1839 -0.0223  0.0984
  848SOL    HW1 2585   4.742   3.678   2.745  1.0673 -1.1698 -1.3559
  848SOL    HW2 2586   4.812   3.778   2.656 -0.1775  0.5132 -0.5086
  849SOL     OW 2587   1.751   4.827   2.358  1.1750  0.0491  0.2190
  849SOL    HW1 2588   1.752   4.891   2.430 -0.2133 -1.9956  2.1954
  849SOL    HW2 2589   1.671   4.847   2.309  0.3844 -0.5152  1.2330
  850SOL     OW 2590   5.557   3.808   2.667 -0.0022 -0.5559  0.3191
  850SOL    HW1 2591   5.592   3.734   2.717 -0.5895  0.6552  2.6575
  850SOL    HW2 2592   5.598   3.885   2.707 -2.9986  0.6986  1.2053
  851SOL     OW 2593   4.692   3.689   1.420 -0.9657 -0.2317  0.1531
  851SOL    HW1 2594   4.650   3.606   1.443 -0.6353  0.0723  2.0491
  851SOL    HW2 2595   4.655   3.752   1.482  0.0980  0.6567 -0.0853
  852SOL     OW 2596   3.613   2.463   0.046  0.2427  0.1924 -0.7663
  852SOL    HW1 2597   3.532   2.413   0.040 -0.7386  1.3070  1.6634
  852SOL    HW2 2598   3.678   2.400   0.078 -0.4236 -0.0950  0.0839
  853SOL     OW 2599   5.174   3.565   2.024  0.0283 -0.3676  0.0891
  853SOL    HW1 2600   5.178   3.544   2.118 -0.1202  1.4769  0.5447
  853SOL    HW2 2601   5.189   3.481   1.980  0.1096 -1.2689  1.7580
  854SOL     OW 2602   4.450   4.013   2.162 -0.7296  0.5741  0.5420
  854SOL    HW1 2603   4.500   4.005   2.081  0.4319  1.1921  1.1639
  854SOL    HW2 2604   4.488   3.947   2.221 -1.6954 -0.0086  0.5422
  855SOL     OW 2605   5.366   4.404   2.339  0.6393 -0.0007  0.5779
  855SOL    HW1 2606   5.285   4.394   2.289  0.3980 -1.2742  1.1743
  855SOL    HW2 2607   5.356   4.342   2.412  2.6648 -1.0831  0.0035
  856SOL     OW 2608   1.885   2.050   0.304 -0.5443 -0.2977 -0.3207
  856SOL    HW1 2609   1.955   2.004   0.351  0.5455  2.4053  0.9335
  856SOL    HW2 2610   1.805   2.029   0.353 -0.3134 -1.8138 -0.5581
  857SOL     OW 2611   4.943   3.794   3.085 -0.5205  0.1590 -0.0625
  857SOL    HW1 2612   4.914   3.707   3.061 -1.1726  0.4978 -0.5321
  857SOL    HW2 2613   4.970   3.786   3.177 -0.8061 -0.4765 -0.0297
  858SOL     OW 2614   4.970   3.950   2.875  0.0615  0.0427 -0.1301
  858SOL    HW1 2615   5.013   3.908   2.800  0.1559 -0.4671  0.2033
  858SOL    HW2 2616   4.980   3.887   2.947 -1.0345  0.0175  0.0124
  859SOL     OW 2617   5.575   4.031   2.481 -0.0889 -0.1366  0.4068
  859SOL    HW1 2618   5.551   4.107   2.534 -1.8852 -0.7196  0.5179
  859SOL    HW2 2619   5.552   3.956   2.535 -0.5509 -0.7425 -0.6085
  860SOL     OW 2620   4.742   4.208   2.057 -0.8982  0.5082  0.4512
  860SOL    HW1 2621   4.819   4.151   2.054 -1.7643 -0.8444  1.9878
  860SOL    HW2 2622   4.758   4.265   2.132 -0.6418  1.4265 -0.2788
  861SOL     OW 2623   3.026   1.940   0.352 -0.0690 -0.1444  0.4453
  861SOL    HW1 2624   3.108   1.895   0.332  0.0395 -0.6613  1.9566
  861SOL    HW2 2625   3.043   2.032   0.334  1.4268  0.0130  2.3647
  862SOL     OW 2626   3.349   2.263   0.342 -0.0250  0.2717  0.4285
  862SOL    HW1 2627   3.424   2.306   0.383  1.3896 -1.8678  0.2417
  862SOL    HW2 2628   3.380   2.239   0.255 -1.7591  1.4266 -0.5676
  863SOL     OW 2629   4.994   3.838   2.623  0.1760 -0.5018  0.0322
  863SOL    HW1 2630   5.002   3.903   2.554 -0.9606  1.8471  1.9537
  863SOL    HW2 2631   5.075   3.788   2.618  1.7986  1.9919 -0.7320
  864SOL     OW 2632   2.844   1.278   0.218 -0.1417 -0.2222  0.1195
  864SOL    HW1 2633   2.884   1.361   0.243  0.7947 -0.5097 -0.3796
  864SOL    HW2 2634   2.908   1.212   0.243  0.3780 -0.5999 -2.0393
  865SOL     OW 2635   4.976   3.998   2.387 -0.2252 -0.4404 -0.4329
  865SOL    HW1 2636   4.928   4.081   2.393 -1.0262 -0.8606 -0.8626
  865SOL    HW2 2637   4.932   3.950   2.317  0.1829 -1.2583 -0.1377
  866SOL     OW 2638   4.579   3.845   2.457  0.3300 -0.9472 -0.6175
  866SOL    HW1 2639   4.628   3.815   2.534  1.9950  1.1686 -0.7616
  866SOL    HW2 2640   4.529   3.920   2.488 -0.1978 -1.0227 -1.2593
  867SOL     OW 2641   5.697   4.060   2.143 -0.6391  0.5109  0.2816
  867SOL    HW1 2642   5.704   4.008   2.223 -3.7292 -0.0959  0.2833
  867SOL    HW2 2643   5.750   4.013   2.079 -2.1970 -1.9899  0.6726
  868SOL     OW 2644   1.518   3.745   1.833  0.1769 -0.3119 -0.4776
  868SOL    HW1 2645   1.474   3.704   1.758 -2.3285  0.6884  0.3360
  868SOL    HW2 2646   1.509   3.682   1.904 -0.6877  0.2305 -0.0970
  869SOL     OW 2647   4.546   4.452   3.045  0.0983 -0.1829  0.1976
  869SOL    HW1 2648   4.634   4.487   3.030  0.1160 -0.2614  0.1162
  869SOL    HW2 2649   4.553   4.359   3.022  0.1775 -0.3531  0.8961
  870SOL     OW 2650   3.225   1.741   0.261 -0.5351 -0.4750 -0.3585
  870SOL    HW1 2651   3.149   1.738   0.204 -0.6132 -1.5087 -0.2195
  870SOL    HW2 2652   3.201   1.687   0.336 -0.2904  0.5564  0.4789
  871SOL     OW 2653   4.273   4.490   3.009  0.0094 -0.0865 -0.1148
  871SOL    HW1 2654   4.221   4.415   3.035 -0.6776  0.3780 -0.1248
  871SOL    HW2 2655   4.363   4.465   3.028 -0.1782 -1.0479 -0.4653
  872SOL     OW 2656   5.183   4.350   2.156  0.0925  0.3975  0.1748
  872SOL    HW1 2657   5.151   4.434   2.122 -0.0910  0.3929  0.3371
  872SOL    HW2 2658   5.104   4.304   2.185  0.2639  0.4762  0.7780
  873SOL     OW 2659   3.431   2.218   0.074 -0.2288 -0.3647 -0.2919
  873SOL    HW1 2660   3.398   2.219  -0.016 -1.4265 -0.7652  0.1258
  873SOL    HW2 2661   3.422   2.127   0.103  2.2538 -0.7340 -0.4837
  874SOL     OW 2662   2.728   1.806   0.355  0.2789  0.6893  0.6141
  874SOL    HW1 2663   2.806   1.855   0.332 -0.5370  2.1860  0.8840
  874SOL    HW2 2664   2.689   1.856   0.427 -0.9305 -0.0023  0.4691
  875SOL     OW 2665   5.841   3.968   2.394  0.1586  0.3380  0.4535
  875SOL    HW1 2666   5.838   3.874   2.376  0.1663  0.0446  1.8388
  875SOL    HW2 2667   5.754   3.989   2.428  0.3501  0.7024  0.7303
  876SOL     OW 2668   5.887   3.648   2.565 -0.1177  0.2346 -0.1763
  876SOL    HW1 2669   5.819   3.658   2.498 -0.8726 -4.4768 -0.4488
  876SOL    HW2 2670   5.839   3.621   2.644  1.2152 -1.6693  0.0580
  877SOL     OW 2671   4.723   4.009   2.946  0.5171  0.0828  0.4652
  877SOL    HW1 2672   4.658   3.963   2.893 -0.0444  1.3219  0.0369
  877SOL    HW2 2673   4.806   3.996   2.900 -0.1762  2.4214 -1.7027
  878SOL     OW 2674   2.748   1.992   0.043 -0.4042  0.0276  0.4694
  878SOL    HW1 2675   2.838   1.963   0.026  0.2601  0.7775  2.3986
  878SOL    HW2 2676   2.694   1.919   0.015  0.9149 -1.0560  0.6197
  879SOL     OW 2677   3.813   1.873   0.227  0.3207  0.1032 -0.0079
  879SOL    HW1 2678   3.901   1.909   0.232  1.5160 -1.9170 -3.3208
  879SOL    HW2 2679   3.756   1.949   0.212  1.5706  1.3281  1.1542
  880SOL     OW 2680   2.857   1.565   0.287  0.0011 -0.2764  0.6477
  880SOL    HW1 2681   2.814   1.638   0.332  1.0917  0.8218 -0.0443
  880SOL    HW2 2682   2.930   1.540   0.345 -0.2800 -0.7508  0.8118
  881SOL     OW 2683   4.388   4.288   2.164 -0.4864  0.2452  1.0038
  881SOL    HW1 2684   4.413   4.197   2.182 -0.3214  0.3053  1.0761
  881SOL    HW2 2685   4.293   4.284   2.150 -0.5640  0.1369  1.5164
  882SOL     OW 2686   4.503   3.738   2.224  0.6515 -0.4525  0.7715
  882SOL    HW1 2687   4.587   3.747   2.180  0.6634  0.9997  1.0441
  882SOL    HW2 2688   4.518   3.775   2.311 -0.0343 -1.0210  1.1434
  883SOL     OW 2689   5.294   4.269   2.553  0.0378 -0.5942  0.3301
  883SOL    HW1 2690   5.231   4.326   2.597  0.5488 -1.6532  2.5902
  883SOL    HW2 2691   5.349   4.235   2.624  1.6301 -1.5770 -1.2838
  884SOL     OW 2692   3.783   1.652   0.027 -0.3295  0.2605 -0.0160
  884SOL    HW1 2693   3.787   1.711   0.103  2.0079  0.3952 -0.1514
  884SOL    HW2 2694   3.832   1.574   0.055 -1.9411 -0.9353 -0.4279
  885SOL     OW 2695   5.075   3.815   2.033  0.1894 -0.0281  0.5128
  885SOL    HW1 2696   5.115   3.731   2.054 -0.9060 -0.7917 -0.3277
  885SOL    HW2 2697   5.014   3.796   1.962  0.5715  1.6539 -0.3229
  886SOL     OW 2698   2.241   1.973   0.115  0.1595  0.0978  0.1629
  886SOL    HW1 2699   2.329   1.958   0.148  0.7091  0.0555 -1.2209
  886SOL    HW2 2700   2.210   2.051   0.162  2.4353  2.4806 -1.9178
  887SOL     OW 2701   5.167   4.116   2.940  0.1281 -0.6297 -0.0393
  887SOL    HW1 2702   5.163   4.210   2.925  2.9224 -0.7658 -2.6612
  887SOL    HW2 2703   5.099   4.080   2.882  0.8787 -0.3384 -1.1169
  888SOL     OW 2704   3.038   1.725   0.050  0.0025  0.1329  0.2928
  888SOL    HW1 2705   3.026   1.800  -0.009  0.1507  0.3530  0.5393
  888SOL    HW2 2706   2.966   1.666   0.028 -1.0318  1.0286  1.1231
  889SOL     OW 2707   5.260   3.881   2.328 -0.2947  0.2104 -0.0988
  889SOL    HW1 2708   5.197   3.850   2.263 -1.9564 -1.7319  2.2739
  889SOL    HW2 2709   5.276   3.972   2.304 -1.1222 -0.2942 -2.9432
  890SOL     OW 2710   5.404   4.111   2.234  0.4709  0.3667  0.3940
  890SOL    HW1 2711   5.488   4.101   2.188  0.2831  2.2750 -0.4849
  890SOL    HW2 2712   5.428   4.141   2.322  0.7791  3.5664 -0.6316
  891SOL     OW 2713   5.711   4.012   2.795  0.0120  0.8913  0.0620
  891SOL    HW1 2714   5.680   4.097   2.826 -0.0909  0.6240  0.7019
  891SOL    HW2 2715   5.787   4.033   2.742  1.3510  1.2575  2.0048
  892SOL     OW 2716   2.114   0.784   0.197  0.0867 -0.2954 -0.2017
  892SOL    HW1 2717   2.127   0.693   0.224 -0.7909 -0.4437 -0.2384
  892SOL    HW2 2718   2.095   0.779   0.104  1.2775  0.0528 -0.4869
  893SOL     OW 2719   1.862   4.664   0.950  0.1835 -0.0967 -0.1901
  893SOL    HW1 2720   1.952   4.664   0.917  0.9411  1.7285  1.6139
  893SOL    HW2 2721   1.830   4.752   0.933  0.4593  0.8150  3.2121
  894SOL     OW 2722   1.903   4.652   0.611 -0.1054 -0.1873 -0.4927
  894SOL    HW1 2723   1.977   4.702   0.577  1.1630 -0.0116  2.2530
  894SOL    HW2 2724   1.830   4.675   0.554  0.5899  4.1533  0.0314
  895SOL     OW 2725   2.613   1.488   1.423 -0.3560  0.1301  0.0596
  895SOL    HW1 2726   2.614   1.515   1.331 -1.1875  0.5760  0.1714
  895SOL    HW2 2727   2.549   1.546   1.464 -0.5855 -0.5904  0.7528
  896SOL     OW 2728   3.231   1.923   0.700  0.0422  0.5260 -0.1977
  896SOL    HW1 2729   3.284   1.855   0.741  0.7922 -0.4336 -2.5476
  896SOL    HW2 2730   3.155   1.876   0.664 -0.7243  1.3601  0.2985
  897SOL     OW 2731   3.371   4.669   0.809  0.0455  0.0796  0.2653
  897SOL    HW1 2732   3.388   4.748   0.757  0.0139 -0.4943 -0.6466
  897SOL    HW2 2733   3.276   4.667   0.821  0.0829  0.3882  0.6471
  898SOL     OW 2734   2.535   1.097   1.180  0.2471 -0.1349 -0.2205
  898SOL    HW1 2735   2.573   1.143   1.255  0.0898 -1.1599  0.5192
  898SOL    HW2 2736   2.606   1.039   1.151  0.6859  1.0296 -1.5831
  899SOL     OW 2737   2.791   5.294   1.465 -0.0179 -0.0182 -0.0958
  899SOL    HW1 2738   2.721   5.231   1.451 -0.4526 -0.0994  2.1451
  899SOL    HW2 2739   2.761   5.373   1.420 -2.2740  0.3935  1.9601
  900SOL     OW 2740   2.452   4.766   0.564  0.0123  0.3719 -0.4837
  900SOL    HW1 2741   2.420   4.815   0.640  2.2242 -0.0948  0.8264
  900SOL    HW2 2742   2.498   4.830   0.511  0.3684  0.2798 -0.2875
  901SOL     OW 2743   2.403   1.444   1.939  0.6179 -0.0453 -0.2852
  901SOL    HW1 2744   2.492   1.436   1.974 -0.2342 -2.6465  1.6267
  901SOL    HW2 2745   2.366   1.356   1.947 -2.2988  1.0396 -0.5644
  902SOL     OW 2746   1.891   1.123   1.060 -0.2835  0.1440  0.5318
  902SOL    HW1 2747   1.980   1.158   1.063 -0.7404  1.2928  1.7945
  902SOL    HW2 2748   1.902   1.028   1.058  0.9756  0.2764 -0.9346
  903SOL     OW 2749   3.675   1.596   1.448  0.2150 -0.1821  0.0281
  903SOL    HW1 2750   3.659   1.504   1.428  2.2688 -0.1887 -1.9090
  903SOL    HW2 2751   3.671   1.640   1.363  1.2252  1.1896  0.6569
  904SOL     OW 2752   2.625   4.662   1.482  0.5573 -0.1995 -0.3903
  904SOL    HW1 2753   2.601   4.658   1.575  1.0219  1.1665 -0.1973
  904SOL    HW2 2754   2.648   4.572   1.459 -1.0145 -0.8488  0.4172
  905SOL     OW 2755   3.662   4.646   0.513 -0.2257  0.2186 -0.1208
  905SOL    HW1 2756   3.650   4.626   0.606 -1.4746  2.2442  0.2270
  905SOL    HW2 2757   3.576   4.677   0.484  0.9045  2.8509 -1.0425
  906SOL     OW 2758   2.152   1.356   0.417 -0.5171 -0.0053 -0.2249
  906SOL    HW1 2759   2.093   1.295   0.372  0.4535 -0.5840 -0.7464
  906SOL    HW2 2760   2.153   1.325   0.508 -0.5834 -0.3307 -0.3331
  907SOL     OW 2761   3.193   1.290   1.513 -0.0916 -0.0947 -0.1841
  907SOL    HW1 2762   3.152   1.269   1.597  0.0848  1.2323  0.2724
  907SOL    HW2 2763   3.194   1.386   1.511  1.7458 -0.0906 -0.7905
  908SOL     OW 2764   1.969   1.154   0.385 -0.2405  0.0740 -0.1786
  908SOL    HW1 2765   1.932   1.096   0.451  1.1301 -0.9353 -0.2705
  908SOL    HW2 2766   1.964   1.105   0.303  1.4898 -0.2084 -0.1528
  909SOL     OW 2767   2.344   0.614   0.738  0.0259  0.1094 -0.2238
  909SOL    HW1 2768   2.277   0.682   0.746  0.2319  0.1540  1.5093
  909SOL    HW2 2769   2.420   0.649   0.785  0.1608 -1.2773  0.6477
  910SOL     OW 2770   2.385   1.718   1.468 -0.1372 -0.2003  0.1780
  910SOL    HW1 2771   2.423   1.744   1.385 -0.4229 -1.8512 -0.5058
  910SOL    HW2 2772   2.304   1.769   1.475 -0.0302  0.0601 -0.4877
  911SOL     OW 2773   3.541   4.159   1.509  0.2234  0.3325 -0.3973
  911SOL    HW1 2774   3.550   4.146   1.603 -0.4676 -0.6726 -0.4495
  911SOL    HW2 2775   3.473   4.097   1.483  0.5749  0.4252 -1.5996
  912SOL     OW 2776   2.146   0.457   0.542 -0.4015  0.2707  0.6889
  912SOL    HW1 2777   2.208   0.530   0.533 -0.1612 -0.1994 -2.3811
  912SOL    HW2 2778   2.174   0.393   0.477 -1.6742 -1.8227  2.0903
  913SOL     OW 2779   4.226   3.472   2.714  0.5929  0.1403  0.4980
  913SOL    HW1 2780   4.161   3.474   2.784  1.3869  1.1462  1.2522
  913SOL    HW2 2781   4.309   3.495   2.758  1.2683 -0.1115 -0.6058
  914SOL     OW 2782   3.640   0.773   0.697  0.0307 -0.5071  0.1353
  914SOL    HW1 2783   3.708   0.831   0.732  0.9769 -1.7557  0.4393
  914SOL    HW2 2784   3.593   0.828   0.634 -0.1823  1.0747  1.5759
  915SOL     OW 2785   2.166   5.138   1.623 -0.2280 -0.3034  0.2755
  915SOL    HW1 2786   2.168   5.080   1.698 -1.2851 -0.8334 -0.0820
  915SOL    HW2 2787   2.111   5.212   1.651  0.7686  0.3472  0.5857
  916SOL     OW 2788   2.564   1.395   0.912  0.1206  0.6229 -0.4451
  916SOL    HW1 2789   2.488   1.340   0.893  2.4875 -3.1241 -0.1725
  916SOL    HW2 2790   2.607   1.407   0.828  1.5374 -1.2483 -0.0540
  917SOL     OW 2791   2.949   5.151   1.287  0.3370  0.1978 -0.0935
  917SOL    HW1 2792   3.034   5.179   1.320  0.2818  1.1682 -0.7585
  917SOL    HW2 2793   2.892   5.227   1.298 -0.8210 -0.8318  1.5769
  918SOL     OW 2794   2.616   4.303   0.796  0.9346  0.6154  0.1911
  918SOL    HW1 2795   2.638   4.387   0.835  1.7041 -0.3161  1.9193
  918SOL    HW2 2796   2.688   4.245   0.823  0.2900 -0.6499 -0.7191
  919SOL     OW 2797   1.594   4.983   1.252  0.6970  0.3856  0.1366
  919SOL    HW1 2798   1.684   5.015   1.255  0.5721  0.9127  4.2253
  919SOL    HW2 2799   1.601   4.894   1.216  2.9180  0.2738  0.6830
  920SOL     OW 2800   2.841   2.022   1.802  0.4102 -0.0234  0.1639
  920SOL    HW1 2801   2.891   1.944   1.779 -0.3915 -0.6551  0.5347
  920SOL    HW2 2802   2.883   2.054   1.882  1.1546  0.3288 -0.3439
  921SOL     OW 2803   2.105   4.385   2.018 -0.3256  0.0632  0.1194
  921SOL    HW1 2804   2.143   4.373   1.931 -0.6710 -0.4510  0.0352
  921SOL    HW2 2805   2.156   4.325   2.074 -1.3581 -1.0643 -0.0992
  922SOL     OW 2806   3.351   1.702   0.754 -0.0789  0.0929  0.3806
  922SOL    HW1 2807   3.334   1.657   0.837  0.4414  0.2861  0.5962
  922SOL    HW2 2808   3.345   1.634   0.687  0.5553 -0.2761  0.6865
  923SOL     OW 2809   3.514   1.737   0.381 -0.0235 -0.2930 -0.3296
  923SOL    HW1 2810   3.520   1.661   0.323 -0.2187  0.2635 -1.0884
  923SOL    HW2 2811   3.436   1.784   0.351  0.2135  0.3210  0.0043
  924SOL     OW 2812   3.358   4.461   0.987  0.1496 -0.2489  0.0929
  924SOL    HW1 2813   3.291   4.401   0.953 -0.6737  0.9793 -0.5444
  924SOL    HW2 2814   3.379   4.518   0.913  1.0713  0.1032  0.6146
  925SOL     OW 2815   2.561   5.111   1.388 -0.1110  0.3719  0.8992
  925SOL    HW1 2816   2.499   5.132   1.457  0.6575  0.3407  1.6046
  925SOL    HW2 2817   2.505   5.089   1.312 -0.9436  1.0509  1.2991
  926SOL     OW 2818   3.031   4.851   1.760  0.1405  0.2929 -0.6206
  926SOL    HW1 2819   2.985   4.770   1.743 -0.0755  0.5296 -1.1737
  926SOL    HW2 2820   3.026   4.900   1.678  1.3207  0.3543 -0.6781
  927SOL     OW 2821   2.800   5.188   1.717  0.2196  0.1082 -0.1428
  927SOL    HW1 2822   2.812   5.234   1.634 -0.5854 -0.2556 -0.4831
  927SOL    HW2 2823   2.863   5.227   1.777  0.0923  1.0987 -0.6411
  928SOL     OW 2824   2.907   4.614   1.032 -0.4097  0.0437  0.2204
  928SOL    HW1 2825   2.855   4.536   1.016  1.2521 -0.8715 -1.0560
  928SOL    HW2 2826   2.944   4.601   1.120 -3.0724  1.2387  1.6594
  929SOL     OW 2827   2.882   0.971   0.786  0.3360  0.0222  0.2273
  929SOL    HW1 2828   2.819   0.919   0.835  1.8312 -0.7681  1.3852
  929SOL    HW2 2829   2.954   0.985   0.847  2.4549 -1.3226 -1.8291
  930SOL     OW 2830   2.114   1.097   0.785  0.3806 -0.6559  0.2128
  930SOL    HW1 2831   2.198   1.064   0.754  0.6257 -1.5369  1.6677
  930SOL    HW2 2832   2.090   1.037   0.856 -1.0891  0.0534  0.3618
  931SOL     OW 2833   1.774   1.890   1.606 -0.5593 -0.4285  0.4696
  931SOL    HW1 2834   1.864   1.920   1.594 -0.1887 -1.3574  0.8359
  931SOL    HW2 2835   1.782   1.806   1.650 -1.6065 -0.6158  0.3375
  932SOL     OW 2836   3.593   5.041   1.602 -0.7471 -0.3739 -0.1482
  932SOL    HW1 2837   3.577   5.044   1.696  1.1426 -2.4946  0.3042
  932SOL    HW2 2838   3.688   5.047   1.593 -0.6574 -2.8169 -1.7015
  933SOL     OW 2839   3.373   1.453   0.597 -0.2096 -0.0175 -0.0433
  933SOL    HW1 2840   3.350   1.471   0.506  0.6324  0.9441 -0.0820
  933SOL    HW2 2841   3.361   1.358   0.606 -0.0522 -0.1654 -1.2278
  934SOL     OW 2842   2.614   4.601   0.825 -0.1846 -0.1981 -0.3527
  934SOL    HW1 2843   2.520   4.581   0.824 -0.4364  0.8779 -0.0592
  934SOL    HW2 2844   2.639   4.593   0.917  0.1477 -1.0387 -0.5099
  935SOL     OW 2845   2.899   1.984   0.800 -0.0858  0.0854 -0.0495
  935SOL    HW1 2846   2.959   1.954   0.732  0.5823 -0.5720  0.8152
  935SOL    HW2 2847   2.848   2.054   0.758  1.7441  1.1581 -0.5985
  936SOL     OW 2848   2.060   1.734   0.817  0.0263 -0.3017 -0.9936
  936SOL    HW1 2849   2.069   1.721   0.911 -2.7152  1.0625 -0.4338
  936SOL    HW2 2850   2.030   1.649   0.784  2.9405 -1.3947 -1.0648
  937SOL     OW 2851   3.456   1.076   1.192  0.3194 -0.2011  0.4822
  937SOL    HW1 2852   3.461   0.982   1.207 -0.3847 -0.2516  0.4784
  937SOL    HW2 2853   3.547   1.106   1.191  0.5160 -0.7305  1.4319
  938SOL     OW 2854   2.901   1.848   1.516 -0.0316  0.6799 -0.7213
  938SOL    HW1 2855   2.912   1.759   1.484  1.0405  0.0864  1.1076
  938SOL    HW2 2856   2.989   1.885   1.514  0.3353  0.2728  2.1968
  939SOL     OW 2857   2.751   0.815   0.965 -0.6913 -0.4151 -0.3251
  939SOL    HW1 2858   2.805   0.738   0.984 -1.6864 -1.1020 -0.1525
  939SOL    HW2 2859   2.663   0.779   0.951 -1.1377  0.6782 -0.4426
  940SOL     OW 2860   1.980   1.476   1.903 -0.3291  0.2349 -0.7804
  940SOL    HW1 2861   2.023   1.395   1.875  1.3540  0.8157 -0.0705
  940SOL    HW2 2862   2.041   1.545   1.877 -0.6990  1.0899  0.5047
  941SOL     OW 2863   1.985   4.784   1.692  0.2918 -0.3297  0.2484
  941SOL    HW1 2864   2.004   4.873   1.664 -0.3245 -0.6787 -1.3819
  941SOL    HW2 2865   2.069   4.751   1.724  0.3062  1.1383  1.8261
  942SOL     OW 2866   2.446   1.286   0.451  0.1967 -0.0845 -0.0143
  942SOL    HW1 2867   2.421   1.364   0.401  1.8228  0.7052  0.3394
  942SOL    HW2 2868   2.474   1.223   0.384  0.3271  0.1966 -0.2263
  943SOL     OW 2869   2.142   2.156   1.058  0.1808  0.6622 -0.5227
  943SOL    HW1 2870   2.223   2.169   1.109  0.5423  0.3674 -1.0093
  943SOL    HW2 2871   2.159   2.200   0.975  0.4541 -0.7133 -1.2235
  944SOL     OW 2872   2.716   1.824   1.020  0.6317  0.3857  0.1945
  944SOL    HW1 2873   2.797   1.811   0.972 -0.6149 -1.7073 -1.5267
  944SOL    HW2 2874   2.649   1.835   0.952 -0.6138  1.8289  1.5521
  945SOL     OW 2875   2.391   0.375   0.256  0.4846  0.1040  0.4336
  945SOL    HW1 2876   2.466   0.431   0.274  0.5388  0.6604 -1.3349
  945SOL    HW2 2877   2.396   0.305   0.321  3.3890 -0.6910 -0.5004
  946SOL     OW 2878   3.368   4.313   1.915 -0.7660  0.0597 -0.8126
  946SOL    HW1 2879   3.359   4.394   1.965 -2.5581 -1.1778  1.0113
  946SOL    HW2 2880   3.395   4.248   1.979  0.2997 -0.9038 -2.1845
  947SOL     OW 2881   2.375   4.741   1.369  0.0354 -0.0054  0.1863
  947SOL    HW1 2882   2.448   4.698   1.414  0.4238  0.7924  0.3288
  947SOL    HW2 2883   2.299   4.686   1.390  0.4664 -0.4600  0.6028
  948SOL     OW 2884   2.879   1.488   1.188 -0.2944  0.1085  0.5936
  948SOL    HW1 2885   2.902   1.419   1.127 -0.0917  1.3825 -0.8258
  948SOL    HW2 2886   2.785   1.502   1.173 -0.0862  0.9424 -0.0067
  949SOL     OW 2887   2.908   4.746   1.476 -0.6091  0.0456  0.2543
  949SOL    HW1 2888   2.877   4.659   1.502 -1.3719  0.0160 -0.6547
  949SOL    HW2 2889   2.827   4.798   1.466 -0.2887  0.3573 -0.8932
  950SOL     OW 2890   2.806   1.296   1.002  0.2033  0.4466  0.2736
  950SOL    HW1 2891   2.796   1.204   1.026  1.4846  0.0979 -0.4714
  950SOL    HW2 2892   2.716   1.327   0.988 -0.1834 -1.2687 -1.5400
  951SOL     OW 2893   3.083   4.676   0.823  0.0943 -0.1535 -0.8539
  951SOL    HW1 2894   3.024   4.673   0.899  0.5712 -1.2444 -0.5107
  951SOL    HW2 2895   3.122   4.589   0.819  2.4765  0.8049 -0.4406
  952SOL     OW 2896   2.442   4.280   0.590 -0.1653 -0.3414  0.1289
  952SOL    HW1 2897   2.385   4.203   0.591 -0.0679 -0.4155 -0.0689
  952SOL    HW2 2898   2.492   4.274   0.671  0.0260 -0.6243 -0.0075
  953SOL     OW 2899   2.758   4.947   1.319  0.0567 -0.4307  0.1475
  953SOL    HW1 2900   2.679   4.993   1.348 -0.8288 -0.4096 -2.0863
  953SOL    HW2 2901   2.830   5.007   1.342 -0.4849 -0.5385  2.3969
  954SOL     OW 2902   3.042   1.579   0.821 -0.1346 -0.3421 -0.3305
  954SOL    HW1 2903   3.006   1.644   0.881  1.5946 -0.9411  1.4288
  954SOL    HW2 2904   3.130   1.561   0.853  0.5827 -1.2972 -2.5913
  955SOL     OW 2905   2.467   0.891   0.800  0.5077 -0.0271 -0.2327
  955SOL    HW1 2906   2.505   0.978   0.817 -0.9939  0.4567  0.8882
  955SOL    HW2 2907   2.406   0.906   0.728 -1.1681  0.3410  1.1714
  956SOL     OW 2908   3.074   1.887   1.265 -0.5184 -0.1786 -0.3350
  956SOL    HW1 2909   3.115   1.955   1.319 -2.9013 -0.0638  1.4851
  956SOL    HW2 2910   2.990   1.924   1.238 -0.5332 -1.2784 -1.9189
  957SOL     OW 2911   1.406   4.781   1.661 -0.0038  0.1359  0.0619
  957SOL    HW1 2912   1.414   4.868   1.700 -1.4275  0.5877 -0.5580
  957SOL    HW2 2913   1.322   4.748   1.694  0.2902 -0.7957 -0.1018
  958SOL     OW 2914   2.631   4.359   1.571 -0.0929  0.5588  0.6752
  958SOL    HW1 2915   2.571   4.321   1.635  1.2430 -2.1897  0.4201
  958SOL    HW2 2916   2.635   4.295   1.500  1.1836  1.8716 -0.5102
  959SOL     OW 2917   2.446   4.505   0.447  0.0978  0.9970 -0.8481
  959SOL    HW1 2918   2.424   4.581   0.502 -1.7498  0.4085 -0.7179
  959SOL    HW2 2919   2.472   4.437   0.509  2.0203  1.5334 -0.9771
  960SOL     OW 2920   2.757   4.086   0.902 -0.1759 -0.9632 -0.1546
  960SOL    HW1 2921   2.813   4.011   0.924 -0.2533 -0.8427  0.4783
  960SOL    HW2 2922   2.702   4.098   0.979 -0.4423 -0.5058 -0.4131
  961SOL     OW 2923   3.418   1.051   0.535 -0.1998  0.8645  0.0905
  961SOL    HW1 2924   3.477   1.071   0.608  0.1646 -0.0481  0.0531
  961SOL    HW2 2925   3.331   1.075   0.567  0.0207  0.9373  0.6434
  962SOL     OW 2926   2.941   4.982   1.070  0.5300 -0.6855  0.3622
  962SOL    HW1 2927   2.938   5.050   1.138  1.4039  0.4609 -0.6878
  962SOL    HW2 2928   2.987   4.909   1.110 -1.7373 -1.2910  2.0162
  963SOL     OW 2929   3.563   1.244   0.329  0.5778  0.7007  0.0213
  963SOL    HW1 2930   3.565   1.184   0.404 -0.2237  0.9979  0.2953
  963SOL    HW2 2931   3.487   1.216   0.277 -0.4204  2.0467  0.6693
  964SOL     OW 2932   3.717   1.300   0.790  0.1775 -0.1837  0.1853
  964SOL    HW1 2933   3.649   1.232   0.790 -0.8591  0.7836  1.4762
  964SOL    HW2 2934   3.713   1.338   0.703 -0.3052 -0.7659 -0.0549
  965SOL     OW 2935   2.530   4.298   0.265  0.2271  0.0679 -0.3816
  965SOL    HW1 2936   2.448   4.261   0.233  0.4877 -1.3792  0.5457
  965SOL    HW2 2937   2.504   4.379   0.309 -0.9646 -1.2535  1.4623
  966SOL     OW 2938   3.706   1.160   1.233 -0.0255  0.4826  0.3128
  966SOL    HW1 2939   3.773   1.112   1.281 -0.3624  0.1903  0.4950
  966SOL    HW2 2940   3.754   1.208   1.166  0.1143 -1.7903 -1.3027
  967SOL     OW 2941   2.956   1.231   1.400 -0.5863 -0.2867 -0.1679
  967SOL    HW1 2942   3.046   1.258   1.421 -0.4185 -0.5601 -0.5295
  967SOL    HW2 2943   2.963   1.188   1.315 -1.0981 -0.1138 -0.3014
  968SOL     OW 2944   3.444   1.713   1.589  0.0467 -0.2827 -0.3122
  968SOL    HW1 2945   3.451   1.808   1.585 -1.6619 -0.1450 -2.0786
  968SOL    HW2 2946   3.491   1.682   1.511  1.6816 -1.0327  0.9074
  969SOL     OW 2947   3.085   1.079   1.177  0.1268  0.0276  0.6636
  969SOL    HW1 2948   3.154   1.115   1.122  0.9377  1.4893  2.5295
  969SOL    HW2 2949   3.128   1.013   1.230 -0.7366 -1.6739 -0.6703
  970SOL     OW 2950   3.362   1.207   0.962 -0.1142  0.1952  0.4088
  970SOL    HW1 2951   3.398   1.295   0.955  1.0380 -0.3130 -0.4924
  970SOL    HW2 2952   3.399   1.172   1.043  1.9342 -0.4876 -0.7356
  971SOL     OW 2953   2.998   4.155   1.227 -0.2534  0.1605 -0.2629
  971SOL    HW1 2954   2.940   4.086   1.193  1.0538 -0.8806 -0.4910
  971SOL    HW2 2955   3.066   4.163   1.159  0.2867  0.7905  0.3454
  972SOL     OW 2956   2.681   1.236   1.380 -0.0805 -0.0559  1.0302
  972SOL    HW1 2957   2.655   1.320   1.417  0.0620  0.5948 -0.2909
  972SOL    HW2 2958   2.777   1.241   1.373 -0.0758 -0.3014  0.8920
  973SOL     OW 2959   2.304   0.985   1.272 -0.1673 -0.3349  0.3565
  973SOL    HW1 2960   2.387   1.030   1.256  0.7414 -1.3541  1.9416
  973SOL    HW2 2961   2.309   0.906   1.219 -0.3079 -0.1772  0.1111
  974SOL     OW 2962   2.968   4.448   1.270 -0.3304  0.0806 -0.1264
  974SOL    HW1 2963   2.938   4.467   1.359 -2.2389 -0.7757 -0.5314
  974SOL    HW2 2964   3.004   4.360   1.275 -2.1393 -0.7420 -0.4966
  975SOL     OW 2965   1.740   1.958   1.272 -0.2861  0.3987 -0.5203
  975SOL    HW1 2966   1.690   2.009   1.335  1.2796  0.8360  0.4080
  975SOL    HW2 2967   1.786   2.023   1.218  1.1871  0.0255  0.2329
  976SOL     OW 2968   2.324   1.047   0.604  0.0062  0.7514 -0.1725
  976SOL    HW1 2969   2.347   1.140   0.597  1.4099  0.3175 -3.7922
  976SOL    HW2 2970   2.286   1.026   0.519 -1.9163 -1.6717  1.1662
  977SOL     OW 2971   2.349   4.306   1.196 -0.1919 -0.6180  0.1072
  977SOL    HW1 2972   2.308   4.391   1.186  0.0027 -0.4405  0.7844
  977SOL    HW2 2973   2.353   4.291   1.290  2.6493  0.0485  0.1813
  978SOL     OW 2974   3.265   1.565   0.983  0.5048  0.0421  0.1558
  978SOL    HW1 2975   3.244   1.624   1.056  0.6775  0.5420 -0.1917
  978SOL    HW2 2976   3.356   1.540   0.998  0.6098  0.3241 -0.0124
  979SOL     OW 2977   3.575   0.649   0.016 -0.3325 -0.0606 -0.0391
  979SOL    HW1 2978   3.597   0.556   0.007 -0.2976  0.0977 -2.2622
  979SOL    HW2 2979   3.484   0.655  -0.015 -0.2108  0.6890 -0.2658
  980SOL     OW 2980   1.951   1.700   1.083 -0.2466 -0.3056 -0.2710
  980SOL    HW1 2981   1.971   1.780   1.133 -0.8524 -0.5414  0.3689
  980SOL    HW2 2982   1.988   1.630   1.136 -1.5819 -0.6298  0.2734
  981SOL     OW 2983   2.362   1.175   1.583 -0.3376  0.4507  0.3896
  981SOL    HW1 2984   2.454   1.198   1.596 -0.2085  0.1975 -0.0438
  981SOL    HW2 2985   2.363   1.080   1.567 -0.5828  0.5688 -0.3892
  982SOL     OW 2986   3.188   5.260   1.403  0.1440  0.4550 -0.0634
  982SOL    HW1 2987   3.213   5.170   1.427  0.0908  0.6258  0.6750
  982SOL    HW2 2988   3.254   5.314   1.446  0.0149  0.7846 -0.2814
  983SOL     OW 2989   2.955   4.331   1.790  0.2371  0.1489  0.4465
  983SOL    HW1 2990   3.030   4.275   1.769  0.5522 -0.2779  2.5055
  983SOL    HW2 2991   2.930   4.305   1.878 -0.5306  2.2865  0.9061
  984SOL     OW 2992   2.491   4.425   1.815 -0.2423  0.1356  0.2693
  984SOL    HW1 2993   2.532   4.391   1.894 -0.0839  1.7215  0.9064
  984SOL    HW2 2994   2.551   4.492   1.783 -0.8315  0.2741 -0.5845
  985SOL     OW 2995   2.390   1.158   0.906  0.1932  0.3406  0.5910
  985SOL    HW1 2996   2.432   1.146   0.991 -0.3481  2.0533  1.1531
  985SOL    HW2 2997   2.303   1.193   0.928 -0.3124 -0.1122 -0.6386
  986SOL     OW 2998   2.681   4.777   1.095  0.1115 -0.5598 -0.0575
  986SOL    HW1 2999   2.695   4.859   1.141 -2.4790 -0.4225  0.6086
  986SOL    HW2 3000   2.762   4.727   1.110  0.9599  1.0763  1.1280
  987SOL     OW 3001   3.314   0.631   0.276 -0.0140  0.0181 -0.1349
  987SOL    HW1 3002   3.219   0.646   0.280 -0.1291 -0.1538 -1.6878
  987SOL    HW2 3003   3.330   0.599   0.188  1.3900 -0.8424  0.3894
  988SOL     OW 3004   2.574   4.137   1.096  0.3450 -0.1849  0.3258
  988SOL    HW1 3005   2.539   4.050   1.076  0.9539 -0.5936  1.0137
  988SOL    HW2 3006   2.505   4.179   1.147  0.5690 -0.7458  1.1077
  989SOL     OW 3007   2.171   1.169   1.106  0.3757  0.4790 -0.1001
  989SOL    HW1 3008   2.187   1.098   1.168 -1.2679  1.0305  1.0090
  989SOL    HW2 3009   2.223   1.243   1.140 -0.2969  0.6948  0.4768
  990SOL     OW 3010   2.385   0.791   1.068 -0.1005 -0.1021  0.1098
  990SOL    HW1 3011   2.412   0.798   0.977  0.5061 -1.3058  0.1786
  990SOL    HW2 3012   2.393   0.698   1.088  1.5923  0.3903  1.9506
  991SOL     OW 3013   3.502   5.239   1.960 -0.2757 -0.2897 -0.1822
  991SOL    HW1 3014   3.533   5.169   2.018 -1.6004 -0.0298  0.8757
  991SOL    HW2 3015   3.573   5.303   1.961 -0.7206  0.2407  2.1036
  992SOL     OW 3016   1.982   4.207   0.196 -0.1217  0.2792 -0.9590
  992SOL    HW1 3017   1.945   4.246   0.117 -1.5300 -1.6717 -1.3253
  992SOL    HW2 3018   1.917   4.142   0.224  1.6355 -1.0933  0.1597
  993SOL     OW 3019   3.214   4.714   1.174 -0.0179 -0.1760  0.0285
  993SOL    HW1 3020   3.281   4.742   1.111 -2.0135 -0.1385 -2.2336
  993SOL    HW2 3021   3.196   4.622   1.150 -1.1251 -0.0253  0.2260
  994SOL     OW 3022   2.843   1.291   1.649  0.2573  0.1292 -1.0598
  994SOL    HW1 3023   2.915   1.292   1.712 -0.2667 -0.9254 -0.4148
  994SOL    HW2 3024   2.879   1.247   1.572  0.1296 -1.0612 -0.4757
  995SOL     OW 3025   3.911   1.342   1.468  0.1123 -0.2814  0.6219
  995SOL    HW1 3026   3.960   1.423   1.481  0.4482 -0.6133  1.4973
  995SOL    HW2 3027   3.828   1.370   1.430  1.2853  0.2220 -1.7699
  996SOL     OW 3028   1.795   1.568   1.594  0.4700  0.1816  0.2181
  996SOL    HW1 3029   1.738   1.602   1.525 -0.1302 -2.0526 -0.4861
  996SOL    HW2 3030   1.878   1.550   1.550  0.2219 -0.8395  0.1283
  997SOL     OW 3031   2.990   1.318   0.807 -0.2326  0.7093 -0.3068
  997SOL    HW1 3032   2.932   1.288   0.877  0.6452  0.1926  0.2015
  997SOL    HW2 3033   2.978   1.413   0.806 -1.6572  0.5491 -0.7216
  998SOL     OW 3034   2.141   4.576   1.348 -0.0513 -0.0920  0.3062
  998SOL    HW1 3035   2.070   4.640   1.344 -0.8336 -0.8988  0.9420
  998SOL    HW2 3036   2.101   4.493   1.322  1.0659 -0.2592 -1.0020
  999SOL     OW 3037   2.132   4.655   0.790 -0.2773  0.5247  0.6115
  999SOL    HW1 3038   2.088   4.589   0.736  2.6385 -1.4526  0.4352
  999SOL    HW2 3039   2.144   4.730   0.730 -0.5633 -0.1235 -0.2763
 1000SOL     OW 3040   3.525   4.706   1.630 -0.0965  0.1575  0.1494
 1000SOL    HW1 3041   3.465   4.649   1.678 -0.3360 -1.0075 -1.4463
 1000SOL    HW2 3042   3.492   4.705   1.540  2.3384 -0.6299 -0.8244
 1001SOL     OW 3043   2.873   4.487   1.525  0.3263 -0.3931  0.0157
 1001SOL    HW1 3044   2.931   4.427   1.571 -0.6103 -1.1448  0.2615
 1001SOL    HW2 3045   2.786   4.449   1.535 -0.1934  0.5916 -0.5127
 1002SOL     OW 3046   1.827   1.330   0.203 -0.3906  0.2182 -0.4031
 1002SOL    HW1 3047   1.733   1.317   0.194 -0.5755  1.0234  0.3209
 1002SOL    HW2 3048   1.849   1.293   0.289 -0.2163  0.9377 -0.1360
 1003SOL     OW 3049   1.663   1.918   0.885  0.4694  0.3315 -0.1370
 1003SOL    HW1 3050   1.737   1.857   0.891  0.9042  0.7561 -1.0465
 1003SOL    HW2 3051   1.588   1.862   0.863  0.9351  0.1462 -1.3384
 1004SOL     OW 3052   2.593   1.521   1.155  0.7435  0.6591  0.2754
 1004SOL    HW1 3053   2.567   1.610   1.132 -0.2761  0.3197  0.0395
 1004SOL    HW2 3054   2.578   1.471   1.075 -0.6126 -0.0945  0.9617
 1005SOL     OW 3055   3.007   0.600   0.785  0.0063  0.7899 -0.2413
 1005SOL    HW1 3056   3.005   0.622   0.878 -0.7170 -1.0149  0.2125
 1005SOL    HW2 3057   3.049   0.514   0.781 -1.7319 -0.0521 -1.3706
 1006SOL     OW 3058   1.761   4.897   0.838  0.2677 -0.9929  0.2899
 1006SOL    HW1 3059   1.772   4.922   0.746  0.2026 -0.2920  0.4670
 1006SOL    HW2 3060   1.708   4.967   0.876  1.4781 -0.5429  1.1941
 1007SOL     OW 3061   2.259   4.761   1.777  0.2651  0.0280  0.3583
 1007SOL    HW1 3062   2.352   4.756   1.755  0.7259 -1.0699  2.3489
 1007SOL    HW2 3063   2.244   4.854   1.798  0.8983  0.2157 -0.0089
 1008SOL     OW 3064   3.371   5.531   1.737 -0.0736 -0.1037 -0.3799
 1008SOL    HW1 3065   3.378   5.435   1.736  0.1746 -0.0789 -0.9417
 1008SOL    HW2 3066   3.462   5.561   1.730 -0.2408  0.1801 -1.3423
 1009SOL     OW 3067   3.389   4.676   1.407 -0.2953 -0.0567  0.2273
 1009SOL    HW1 3068   3.401   4.618   1.332  0.6046 -1.6977  1.5966
 1009SOL    HW2 3069   3.312   4.642   1.453  0.3774 -0.3224  1.1729
 1010SOL     OW 3070   2.042   1.489   1.235 -0.4598 -0.2644  0.1722
 1010SOL    HW1 3071   2.135   1.467   1.225 -0.4747  0.2378 -1.2785
 1010SOL    HW2 3072   2.024   1.475   1.328  0.8907 -1.0475  0.3433
 1011SOL     OW 3073   2.293   4.540   0.997 -0.3685  0.0937 -0.2908
 1011SOL    HW1 3074   2.211   4.542   0.948  0.7084  1.4947 -2.1787
 1011SOL    HW2 3075   2.292   4.620   1.049 -0.0792  0.2358 -0.5049
 1012SOL     OW 3076   2.123   1.914   1.177  0.0980 -0.1303 -0.0337
 1012SOL    HW1 3077   2.201   1.875   1.137  1.2439 -0.8374  2.6486
 1012SOL    HW2 3078   2.130   2.007   1.157  1.1843 -0.3054 -0.5692
 1013SOL     OW 3079   4.761   2.318   2.950 -0.0829 -0.3966 -0.0126
 1013SOL    HW1 3080   4.772   2.391   2.888 -1.2762 -1.3231 -1.3763
 1013SOL    HW2 3081   4.819   2.340   3.023  0.9636  1.0142 -1.2052
 1014SOL     OW 3082   2.141   1.200   1.449  0.0181  0.1728 -0.2006
 1014SOL    HW1 3083   2.104   1.113   1.431  0.8130 -0.0987 -0.5780
 1014SOL    HW2 3084   2.225   1.182   1.492  1.0057  0.6998 -1.8390
 1015SOL     OW 3085   3.172   1.008   0.918  0.4021  0.3374  0.6900
 1015SOL    HW1 3086   3.237   1.075   0.940  1.5209 -0.0142 -1.2957
 1015SOL    HW2 3087   3.158   1.017   0.824 -0.7996 -1.0272  0.6941
 1016SOL     OW 3088   5.485   2.883   2.974  0.3439 -0.7198 -0.0424
 1016SOL    HW1 3089   5.438   2.966   2.973 -1.1702 -1.5421 -1.0230
 1016SOL    HW2 3090   5.492   2.858   2.882  2.8473 -0.5872  0.0532
 1017SOL     OW 3091   3.890   1.537   1.239 -0.3864 -0.1670 -0.6738
 1017SOL    HW1 3092   3.985   1.543   1.256 -0.6244 -0.0912  0.8370
 1017SOL    HW2 3093   3.882   1.474   1.168  0.7177 -1.7206  0.4927
 1018SOL     OW 3094   2.704   2.185   0.726  0.1379  0.1803 -0.6826
 1018SOL    HW1 3095   2.737   2.256   0.670 -1.8540  0.7857 -1.1559
 1018SOL    HW2 3096   2.691   2.226   0.811  0.1395  0.0726 -0.6315
 1019SOL     OW 3097   2.153   0.802   0.886  0.2623  0.0412  0.0657
 1019SOL    HW1 3098   2.205   0.830   0.961 -0.4013  0.4248  0.3897
 1019SOL    HW2 3099   2.067   0.781   0.922  0.1976 -0.6566 -0.4513
 1020SOL     OW 3100   2.599   1.941   1.904 -0.4895 -0.4961  0.2742
 1020SOL    HW1 3101   2.546   1.923   1.827  1.0210 -0.7172 -0.7552
 1020SOL    HW2 3102   2.682   1.973   1.870 -0.7550  2.2413  1.8863
 1021SOL     OW 3103   3.786   4.371   0.702  0.3939  0.7917  0.1058
 1021SOL    HW1 3104   3.761   4.333   0.617  0.9834  1.4448 -0.3730
 1021SOL    HW2 3105   3.703   4.399   0.741  0.1399  0.7038 -0.3622
 1022SOL     OW 3106   3.013   1.828   0.592  0.8665 -0.3344  0.5557
 1022SOL    HW1 3107   3.024   1.739   0.560 -0.3588  0.0031 -0.9729
 1022SOL    HW2 3108   2.994   1.880   0.513 -2.3335  0.5782  1.7268
 1023SOL     OW 3109   2.043   1.768   1.709  0.3722  0.1968 -0.1311
 1023SOL    HW1 3110   2.049   1.760   1.614  0.2169 -1.7616 -0.0196
 1023SOL    HW2 3111   2.133   1.753   1.740  0.3627  0.5015  0.0524
 1024SOL     OW 3112   3.171   1.160   0.662 -0.1373 -0.4082 -0.2457
 1024SOL    HW1 3113   3.099   1.201   0.710  2.4181  2.1242  1.7308
 1024SOL    HW2 3114   3.137   1.149   0.573 -3.0087  0.3991  0.6489
 1025SOL     OW 3115   2.803   1.527   1.791  0.8118  0.2398 -0.5575
 1025SOL    HW1 3116   2.766   1.607   1.755  2.7267  0.9292 -1.0965
 1025SOL    HW2 3117   2.774   1.457   1.732 -0.7183  0.5401 -0.1847
 1026SOL     OW 3118   3.945   1.791   1.359 -0.0406 -0.5838  0.2838
 1026SOL    HW1 3119   3.933   1.700   1.333  0.5514 -0.8361  0.8750
 1026SOL    HW2 3120   3.937   1.791   1.454 -0.1450  0.0037  0.2822
 1027SOL     OW 3121   3.775   4.725   0.997  0.4673  0.3430 -0.1664
 1027SOL    HW1 3122   3.723   4.794   1.038  2.2329  0.4892  2.0553
 1027SOL    HW2 3123   3.785   4.659   1.066  1.6683 -0.5162 -1.1096
 1028SOL     OW 3124   1.865   4.197   0.907 -0.4874  0.4998  0.2910
 1028SOL    HW1 3125   1.884   4.123   0.964  0.0824  0.5469  0.1683
 1028SOL    HW2 3126   1.892   4.168   0.820  1.9057  1.6206  0.5705
 1029SOL     OW 3127   2.812   1.040   1.100 -0.3197 -0.4075 -0.0150
 1029SOL    HW1 3128   2.823   0.959   1.051  1.7220  0.1810 -0.6111
 1029SOL    HW2 3129   2.901   1.067   1.123 -1.0081  1.2158  0.9303
 1030SOL     OW 3130   2.028   1.440   1.498 -0.0091  0.0838 -0.4033
 1030SOL    HW1 3131   2.051   1.347   1.493 -1.7259 -0.5248  1.5770
 1030SOL    HW2 3132   2.100   1.480   1.546  1.0496 -0.0536 -1.8016
 1031SOL     OW 3133   3.719   1.624   0.996  0.1882  0.1611  0.4671
 1031SOL    HW1 3134   3.798   1.677   1.007 -1.2622  2.4392  0.5395
 1031SOL    HW2 3135   3.679   1.621   1.083  0.2731 -1.1657  0.4813
 1032SOL     OW 3136   2.818   1.126   0.581  0.0558 -0.0401 -0.0031
 1032SOL    HW1 3137   2.755   1.194   0.607  1.7123  0.9493  1.7204
 1032SOL    HW2 3138   2.833   1.076   0.661  0.6902 -0.9078 -0.6453
 1033SOL     OW 3139   2.928   4.400   0.744  0.0022 -0.3008 -0.7775
 1033SOL    HW1 3140   2.954   4.391   0.652 -0.1379  0.1923 -0.8650
 1033SOL    HW2 3141   2.861   4.467   0.744 -1.0386 -1.3063 -0.5022
 1034SOL     OW 3142   2.614   1.415   0.651 -0.4568  0.3925 -0.2136
 1034SOL    HW1 3143   2.673   1.465   0.594 -1.7095  0.5244 -1.4671
 1034SOL    HW2 3144   2.554   1.372   0.590 -0.7665 -0.8769  0.9549
 1035SOL     OW 3145   2.401   1.119   0.098 -0.3840  0.2105  0.3605
 1035SOL    HW1 3146   2.466   1.181   0.131 -0.2334 -0.6777  1.7966
 1035SOL    HW2 3147   2.319   1.168   0.097  0.0971  1.0258 -0.4603
 1036SOL     OW 3148   1.898   5.311   1.483  0.1768  0.0279  0.0578
 1036SOL    HW1 3149   1.831   5.380   1.483 -0.9217 -0.9965 -0.1108
 1036SOL    HW2 3150   1.948   5.326   1.563  0.8622  1.8299 -0.6614
 1037SOL     OW 3151   2.344   4.264   1.466 -0.4932  0.4327 -0.1491
 1037SOL    HW1 3152   2.273   4.317   1.502 -0.0743  1.2439 -0.4853
 1037SOL    HW2 3153   2.319   4.174   1.485  0.2425  0.7881  3.2908
 1038SOL     OW 3154   4.310   2.512   2.801  0.4696  0.2702 -0.5812
 1038SOL    HW1 3155   4.292   2.419   2.819  0.0014  0.3469 -0.6302
 1038SOL    HW2 3156   4.332   2.549   2.887  0.1529  0.2193 -0.4753
 1039SOL     OW 3157   3.353   5.264   1.719 -0.3256  0.0585  0.2375
 1039SOL    HW1 3158   3.339   5.213   1.639  0.3900 -1.7345  1.2088
 1039SOL    HW2 3159   3.404   5.207   1.776  0.8600  2.0088  1.2588
 1040SOL     OW 3160   1.752   0.230   0.148  0.2482  0.8194  0.7410
 1040SOL    HW1 3161   1.846   0.215   0.154  0.3036  1.1291  0.6404
 1040SOL    HW2 3162   1.742   0.297   0.081 -0.0282  0.9502  0.9101
 1041SOL     OW 3163   2.428   4.858   1.118  0.9928 -0.4151 -0.3962
 1041SOL    HW1 3164   2.407   4.831   1.207 -2.2566 -1.8153 -1.4342
 1041SOL    HW2 3165   2.505   4.806   1.094 -0.4359 -3.0399  0.3567
 1042SOL     OW 3166   3.571   1.948   1.061 -0.2191  0.2604 -0.7407
 1042SOL    HW1 3167   3.634   1.994   1.005 -0.2372  1.0788 -0.0999
 1042SOL    HW2 3168   3.491   1.944   1.008  0.5700 -1.4924 -1.8735
 1043SOL     OW 3169   2.422   5.212   1.601 -0.0356  0.4120 -0.1038
 1043SOL    HW1 3170   2.448   5.197   1.691  1.1286 -0.3449 -0.5455
 1043SOL    HW2 3171   2.335   5.171   1.594 -0.4339  1.0718  0.8245
 1044SOL     OW 3172   3.595   1.355   1.393  0.3138 -0.0886 -0.3709
 1044SOL    HW1 3173   3.505   1.347   1.363 -0.0179 -0.1832  0.6106
 1044SOL    HW2 3174   3.641   1.283   1.351 -0.0580 -0.0194 -0.9071
 1045SOL     OW 3175   2.126   1.861   1.446  0.2086  0.5143  0.2198
 1045SOL    HW1 3176   2.166   1.948   1.446  0.1497  0.5657 -1.3601
 1045SOL    HW2 3177   2.108   1.842   1.354 -1.1752 -0.5414  0.6612
 1046SOL     OW 3178   3.207   0.774   1.119  0.1522  0.2758  0.0232
 1046SOL    HW1 3179   3.276   0.808   1.175 -1.1089  0.8634  1.3020
 1046SOL    HW2 3180   3.178   0.850   1.068 -0.0545  0.2290  0.0664
 1047SOL     OW 3181   3.294   4.477   0.305 -0.1857  0.2737 -0.2244
 1047SOL    HW1 3182   3.203   4.482   0.335 -0.6524 -0.3508 -1.4636
 1047SOL    HW2 3183   3.336   4.554   0.343 -1.2682  0.6402  0.2655
 1048SOL     OW 3184   2.738   4.605   0.593 -0.2612  0.8452 -0.0928
 1048SOL    HW1 3185   2.704   4.617   0.682 -0.8446 -1.5402  0.0934
 1048SOL    HW2 3186   2.666   4.634   0.536 -2.3063 -2.7732  0.3085
 1049SOL     OW 3187   3.607   4.427   1.441  0.1373  0.2237 -0.1264
 1049SOL    HW1 3188   3.580   4.339   1.467 -0.7586  0.6416  0.4042
 1049SOL    HW2 3189   3.552   4.447   1.365  0.9010  0.0243 -0.7407
 1050SOL     OW 3190   3.315   5.040   1.526  0.0806 -0.1373 -0.4951
 1050SOL    HW1 3191   3.380   4.986   1.570 -1.0280 -1.1881 -0.0883
 1050SOL    HW2 3192   3.252   4.978   1.490 -1.5591  0.8863  0.5089
 1051SOL     OW 3193   2.542   1.859   1.264 -0.0224 -0.8263 -0.0172
 1051SOL    HW1 3194   2.615   1.880   1.206 -0.4071  0.3685 -0.0870
 1051SOL    HW2 3195   2.562   1.902   1.347  0.7708 -2.9439  0.9671
 1052SOL     OW 3196   2.942   0.776   0.588  0.3696 -0.3715 -0.2091
 1052SOL    HW1 3197   2.937   0.864   0.627  0.5823 -0.4620  0.0205
 1052SOL    HW2 3198   2.964   0.719   0.661  1.6692 -0.4239 -0.6251
 1053SOL     OW 3199   3.618   1.762   0.693  0.5693 -0.0070  0.1619
 1053SOL    HW1 3200   3.526   1.765   0.666  0.7483  0.5135 -0.4327
 1053SOL    HW2 3201   3.616   1.722   0.780 -0.5102  2.3912  1.3636
 1054SOL     OW 3202   2.153   5.582   1.812  0.4939 -0.0859  0.0697
 1054SOL    HW1 3203   2.193   5.581   1.725  1.0212 -0.3316  0.3130
 1054SOL    HW2 3204   2.219   5.543   1.870  0.2695  0.3585  0.6334
 1055SOL     OW 3205   1.901   1.012   0.606 -0.2742  0.1011  0.2724
 1055SOL    HW1 3206   1.887   0.920   0.585 -1.3868  0.2875  0.1241
 1055SOL    HW2 3207   1.987   1.015   0.648  0.8683 -0.6848 -1.8281
 1056SOL     OW 3208   2.695   1.754   1.666  0.4120  0.0695  0.4849
 1056SOL    HW1 3209   2.621   1.798   1.624 -1.3414 -3.3387 -0.3464
 1056SOL    HW2 3210   2.772   1.785   1.618 -0.8221  1.3104 -0.7725
 1057SOL     OW 3211   3.623   4.367   1.764 -0.5760  0.3004 -0.0993
 1057SOL    HW1 3212   3.638   4.274   1.781  1.0685  0.5888  0.1759
 1057SOL    HW2 3213   3.549   4.390   1.821 -1.3567 -0.9341 -0.5703
 1058SOL     OW 3214   1.816   4.377   0.525  0.1550 -0.1142  0.4277
 1058SOL    HW1 3215   1.830   4.450   0.585  0.8433  0.3405 -0.2592
 1058SOL    HW2 3216   1.903   4.358   0.491 -0.5174  1.4488 -2.4888
 1059SOL     OW 3217   3.514   1.436   0.950  0.5066  0.6959  0.2939
 1059SOL    HW1 3218   3.545   1.406   0.865 -0.1926 -0.7928  0.5391
 1059SOL    HW2 3219   3.575   1.506   0.974  1.5238  0.2276 -0.8172
 1060SOL     OW 3220   1.891   4.755   1.347  0.4104  0.2852  0.1316
 1060SOL    HW1 3221   1.849   4.708   1.418 -0.5006  1.7066  0.5833
 1060SOL    HW2 3222   1.920   4.837   1.386 -1.0606  1.5690 -1.3307
 1061SOL     OW 3223   2.444   1.777   0.777  0.8440  0.1473  0.4934
 1061SOL    HW1 3224   2.464   1.684   0.765 -0.0659 -0.1988  1.4294
 1061SOL    HW2 3225   2.389   1.800   0.703  0.8403 -0.1362  0.4073
 1062SOL     OW 3226   3.148   4.884   1.410  0.4558 -0.1356  0.0274
 1062SOL    HW1 3227   3.063   4.845   1.427  1.2800 -1.3321  1.6161
 1062SOL    HW2 3228   3.184   4.833   1.338  0.4097 -0.5503  0.2978
 1063SOL     OW 3229   3.148   4.545   1.488 -0.1972 -0.1212 -0.0165
 1063SOL    HW1 3230   3.057   4.566   1.509 -0.2532 -0.5167  0.1293
 1063SOL    HW2 3231   3.147   4.454   1.461  0.3825 -0.5661  1.3757
 1064SOL     OW 3232   2.294   1.368   1.279 -0.5148  0.2330  0.0095
 1064SOL    HW1 3233   2.262   1.327   1.359  0.4002 -3.0181 -1.1205
 1064SOL    HW2 3234   2.389   1.364   1.287 -0.3788 -1.3039 -1.6612
 1065SOL     OW 3235   3.171   0.387   0.581  0.2897 -1.1174  0.0466
 1065SOL    HW1 3236   3.136   0.374   0.669 -0.5037  1.1733  0.1574
 1065SOL    HW2 3237   3.094   0.382   0.524  0.0600  1.4273  0.0048
 1066SOL     OW 3238   3.336   0.585   0.693  0.9712  0.3899  0.0163
 1066SOL    HW1 3239   3.377   0.643   0.628  1.0370  0.3266  0.0010
 1066SOL    HW2 3240   3.257   0.553   0.649  0.5350  1.0575  0.3024
 1067SOL     OW 3241   4.037   3.430   2.928 -0.4905 -0.4515  0.4178
 1067SOL    HW1 3242   3.950   3.467   2.913 -0.3390  0.0967  0.8612
 1067SOL    HW2 3243   4.070   3.476   3.005  1.6472  2.0433 -1.7738
 1068SOL     OW 3244   2.376   4.654   2.071  0.1009  0.2452 -0.7421
 1068SOL    HW1 3245   2.368   4.645   1.976  1.0230  1.7117 -0.9940
 1068SOL    HW2 3246   2.363   4.566   2.105  3.1728 -1.0110 -2.4873
 1069SOL     OW 3247   0.463   2.602   0.072  0.5232  0.2098  0.3703
 1069SOL    HW1 3248   0.431   2.626  -0.015 -0.2072  0.3308  0.6559
 1069SOL    HW2 3249   0.428   2.514   0.087 -1.6492  1.1777  1.5743
 1070SOL     OW 3250   2.280   4.887   2.761 -0.0632 -0.3984  0.5619
 1070SOL    HW1 3251   2.256   4.961   2.817  0.6050  0.3296 -0.0751
 1070SOL    HW2 3252   2.293   4.927   2.675 -1.4437 -1.5473 -0.2224
 1071SOL     OW 3253   2.370   5.741   2.966 -0.1504  0.1539 -0.1739
 1071SOL    HW1 3254   2.454   5.788   2.968  0.6379 -1.2387  0.4496
 1071SOL    HW2 3255   2.304   5.810   2.974  0.9743  1.1681  0.7271
 1072SOL     OW 3256   3.319   1.874   2.500  0.1860 -0.1093  0.3036
 1072SOL    HW1 3257   3.372   1.875   2.580 -1.3032  0.2610  1.3333
 1072SOL    HW2 3258   3.273   1.958   2.501 -1.8855 -1.1931  0.5016
 1073SOL     OW 3259   2.936   4.999   2.574  0.4028  0.1591  0.2496
 1073SOL    HW1 3260   2.936   5.095   2.584 -0.6249 -0.0028  2.1798
 1073SOL    HW2 3261   2.912   4.966   2.660 -1.7266 -1.7830 -0.9930
 1074SOL     OW 3262   3.447   4.840   1.879 -0.1234 -0.3860  0.2461
 1074SOL    HW1 3263   3.471   4.789   1.801 -0.3482 -1.6202  0.9494
 1074SOL    HW2 3264   3.367   4.798   1.911 -0.9765  1.1579  0.2139
 1075SOL     OW 3265   2.621   5.464   2.897  0.0774  0.3810  0.5137
 1075SOL    HW1 3266   2.663   5.399   2.839  0.0515  1.6297 -0.9619
 1075SOL    HW2 3267   2.534   5.427   2.914  0.4404 -0.4750  0.5846
 1076SOL     OW 3268   2.744   5.281   2.728  0.1982  0.4230  0.0837
 1076SOL    HW1 3269   2.802   5.276   2.652 -0.1038 -1.2621 -0.0805
 1076SOL    HW2 3270   2.746   5.193   2.765 -1.8484  0.4585  0.3878
 1077SOL     OW 3271   0.274   3.469   0.279  0.0111 -0.6406  0.2444
 1077SOL    HW1 3272   0.340   3.458   0.210 -1.2963  0.3645 -1.2543
 1077SOL    HW2 3273   0.192   3.439   0.239 -1.1094  1.5749  0.7070
 1078SOL     OW 3274   3.424   4.689   2.283 -0.0682  0.1462  0.0520
 1078SOL    HW1 3275   3.380   4.623   2.337  1.5488 -1.4924 -0.5342
 1078SOL    HW2 3276   3.491   4.727   2.341  0.5187 -0.3798 -0.2698
 1079SOL     OW 3277   1.904   1.767   2.266  0.1141  0.1801 -0.1042
 1079SOL    HW1 3278   1.892   1.779   2.360 -1.9150 -1.3321 -0.0870
 1079SOL    HW2 3279   1.994   1.794   2.250  0.5954  0.2941  2.3055
 1080SOL     OW 3280   1.810   5.806   2.429  0.0399 -0.1311  0.0890
 1080SOL    HW1 3281   1.792   5.802   2.335  0.2714 -0.7698  0.0626
 1080SOL    HW2 3282   1.737   5.857   2.465  0.6725  1.3364 -0.6047
 1081SOL     OW 3283   4.370   3.323   0.180  0.3101 -0.3353 -0.9381
 1081SOL    HW1 3284   4.381   3.257   0.248  1.0170  0.6948 -0.0215
 1081SOL    HW2 3285   4.315   3.281   0.114  0.1464 -1.5782 -0.0356
 1082SOL     OW 3286   2.227   1.555   1.648  0.3040 -0.0790 -0.2518
 1082SOL    HW1 3287   2.280   1.521   1.719  2.1434  1.4366 -0.8383
 1082SOL    HW2 3288   2.288   1.603   1.592 -1.2042 -0.5012 -2.4259
 1083SOL     OW 3289   2.229   5.108   2.608 -0.2162 -0.0354 -0.6835
 1083SOL    HW1 3290   2.267   5.101   2.520 -1.5421 -0.3406 -1.2500
 1083SOL    HW2 3291   2.250   5.198   2.635  0.5756 -0.0737 -1.1281
 1084SOL     OW 3292   4.141   2.101   1.631  0.0587 -0.1101 -0.1258
 1084SOL    HW1 3293   4.114   2.177   1.682  2.1445  0.3418  0.3891
 1084SOL    HW2 3294   4.098   2.113   1.546 -2.8822 -0.5093  1.2015
 1085SOL     OW 3295   1.429   1.469   1.644 -0.4041  0.6626 -0.1856
 1085SOL    HW1 3296   1.393   1.506   1.724 -0.2811 -0.0821  0.2173
 1085SOL    HW2 3297   1.521   1.453   1.663 -0.4573  0.1377 -0.3493
 1086SOL     OW 3298   3.579   5.224   2.330 -0.7412 -0.0891 -0.1196
 1086SOL    HW1 3299   3.649   5.172   2.371 -1.0525  0.6012  1.3203
 1086SOL    HW2 3300   3.556   5.173   2.252 -0.9706 -2.0911  1.1615
 1087SOL     OW 3301   3.436   5.715   2.207  0.4109 -0.2445 -0.3297
 1087SOL    HW1 3302   3.391   5.666   2.138 -0.8084  0.4510 -0.0557
 1087SOL    HW2 3303   3.491   5.650   2.251  2.3908 -0.4135 -2.8782
 1088SOL     OW 3304   2.358   5.629   2.698  0.1140  0.0336 -0.6062
 1088SOL    HW1 3305   2.343   5.638   2.792  0.2995  1.4412 -0.6837
 1088SOL    HW2 3306   2.377   5.718   2.669 -0.8326 -0.2392 -2.1362
 1089SOL     OW 3307   3.320   5.523   2.977 -0.1798 -0.4043  0.2465
 1089SOL    HW1 3308   3.255   5.454   2.968  0.7407 -1.3499  0.7455
 1089SOL    HW2 3309   3.374   5.497   3.051 -0.5076  1.4366  1.2082
 1090SOL     OW 3310   2.578   4.576   2.273  0.5323 -1.0513  0.7442
 1090SOL    HW1 3311   2.576   4.603   2.182  0.9440 -1.0267  0.7391
 1090SOL    HW2 3312   2.497   4.527   2.286  0.7503 -1.5693  0.2044
 1091SOL     OW 3313   3.188   4.969   1.959  0.3357 -0.0497 -0.2846
 1091SOL    HW1 3314   3.196   4.892   2.015 -0.5344  0.1913  0.1811
 1091SOL    HW2 3315   3.121   4.946   1.895 -0.7314  0.6999  0.5266
 1092SOL     OW 3316   3.180   5.999   2.660  0.3173 -0.0723  0.3478
 1092SOL    HW1 3317   3.225   6.041   2.586  1.2384 -1.6339 -0.0425
 1092SOL    HW2 3318   3.128   5.930   2.619  0.9619 -1.0582  1.1507
 1093SOL     OW 3319   3.651   2.176   2.341  0.2115  0.0572 -0.4758
 1093SOL    HW1 3320   3.676   2.092   2.301 -0.5062 -0.0268 -0.7509
 1093SOL    HW2 3321   3.594   2.152   2.414  0.8597  0.2580  0.1115
 1094SOL     OW 3322   2.601   5.360   1.821  0.0734 -0.7166  0.2377
 1094SOL    HW1 3323   2.682   5.326   1.784 -0.6876 -0.3792 -1.8620
 1094SOL    HW2 3324   2.584   5.441   1.773 -0.5455  0.2490  1.9633
 1095SOL     OW 3325   3.103   4.722   2.570 -0.8919  0.0224  0.6021
 1095SOL    HW1 3326   3.061   4.697   2.652 -1.0935 -0.0804  0.4703
 1095SOL    HW2 3327   3.103   4.818   2.571 -0.7075  0.0199  0.8137
 1096SOL     OW 3328   3.221   2.068   2.001  0.4006 -0.2131  0.5535
 1096SOL    HW1 3329   3.301   2.020   2.023  0.2687 -0.2648  0.9220
 1096SOL    HW2 3330   3.210   2.130   2.073 -0.3276 -0.7471  0.9144
 1097SOL     OW 3331   2.804   5.107   2.142 -0.5152 -0.4182  0.4476
 1097SOL    HW1 3332   2.792   5.039   2.208  0.4199  0.4555  1.5624
 1097SOL    HW2 3333   2.804   5.060   2.059 -2.5482 -1.4435  0.9763
 1098SOL     OW 3334   4.080   2.909   0.058 -0.4003 -0.1304 -0.2271
 1098SOL    HW1 3335   4.087   2.813   0.064 -1.2397 -0.1442  0.9032
 1098SOL    HW2 3336   4.101   2.929  -0.033  2.1746 -1.1563  0.0366
 1099SOL     OW 3337   2.633   4.700   1.755 -0.1448  0.0546 -0.0924
 1099SOL    HW1 3338   2.728   4.688   1.749 -0.2196 -0.1702 -0.8534
 1099SOL    HW2 3339   2.621   4.754   1.833  0.7079  1.2829 -0.7774
 1100SOL     OW 3340   3.222   5.222   2.007  0.4594  0.0850 -0.3221
 1100SOL    HW1 3341   3.310   5.234   1.971  1.2010  0.7739  1.5908
 1100SOL    HW2 3342   3.200   5.131   1.987  0.7908  0.4350 -2.4819
 1101SOL     OW 3343   2.373   4.477   2.900  0.3212  0.3198 -0.2526
 1101SOL    HW1 3344   2.396   4.483   2.993 -0.9844  2.3973  0.0138
 1101SOL    HW2 3345   2.419   4.550   2.859 -0.8160  0.7546 -0.8039
 1102SOL     OW 3346   2.751   5.758   2.297 -0.5605 -0.1037 -0.0515
 1102SOL    HW1 3347   2.680   5.743   2.360 -0.1006  1.0514  0.7862
 1102SOL    HW2 3348   2.825   5.784   2.352 -0.1954  1.1092 -1.1008
 1103SOL     OW 3349   6.318   5.929   2.791  0.8267 -0.4397 -0.1875
 1103SOL    HW1 3350   6.302   5.862   2.858 -2.3796  2.0985  1.9138
 1103SOL    HW2 3351   6.344   6.007   2.841  0.6144  0.9437 -2.1236
 1104SOL     OW 3352   3.768   5.640   2.531 -0.2536 -0.0068  0.6266
 1104SOL    HW1 3353   3.816   5.565   2.497 -0.0198  0.1377  0.6408
 1104SOL    HW2 3354   3.676   5.614   2.526 -0.2664  0.2462 -0.6875
 1105SOL     OW 3355   2.369   5.479   1.944 -0.6371  0.1911 -0.3969
 1105SOL    HW1 3356   2.345   5.409   2.005 -2.3623 -0.5624 -1.8300
 1105SOL    HW2 3357   2.459   5.459   1.920 -0.6067 -0.6656  0.3587
 1106SOL     OW 3358   3.544   4.897   2.478  0.3539  0.0550 -0.0626
 1106SOL    HW1 3359   3.466   4.953   2.481 -0.5110 -1.1317  0.6671
 1106SOL    HW2 3360   3.618   4.959   2.481 -0.5550  1.1623  0.7061
 1107SOL     OW 3361   3.148   1.832   1.844  0.0988  0.0391  0.8350
 1107SOL    HW1 3362   3.120   1.742   1.863  2.9762 -0.8593  1.3717
 1107SOL    HW2 3363   3.171   1.869   1.929  0.0013  0.8848  0.5009
 1108SOL     OW 3364   3.639   1.282   1.704  0.2767  0.4315  0.2613
 1108SOL    HW1 3365   3.681   1.353   1.752 -0.8132  0.1538  1.7177
 1108SOL    HW2 3366   3.627   1.316   1.616  0.9696  1.5476  0.5836
 1109SOL     OW 3367   2.233   1.676   1.950 -0.2343 -0.0300 -1.1195
 1109SOL    HW1 3368   2.280   1.596   1.971  0.3515  0.0934 -1.8968
 1109SOL    HW2 3369   2.219   1.719   2.034  0.8448 -0.1922 -0.8412
 1110SOL     OW 3370   3.168   4.117   2.106  0.1917 -0.0855  0.3888
 1110SOL    HW1 3371   3.231   4.162   2.163 -0.5559  0.7007  0.6157
 1110SOL    HW2 3372   3.157   4.031   2.146  1.6953 -0.5401 -0.0871
 1111SOL     OW 3373   2.974   6.116   2.763 -0.0103  0.4478  0.1606
 1111SOL    HW1 3374   3.062   6.109   2.727  0.8647  0.9769  2.0943
 1111SOL    HW2 3375   2.943   6.025   2.770  1.3677  0.0662  1.7543
 1112SOL     OW 3376   2.572   4.853   2.074 -0.2383  0.2376  0.0734
 1112SOL    HW1 3377   2.501   4.792   2.089  0.2214 -0.7534 -1.5397
 1112SOL    HW2 3378   2.532   4.925   2.025 -0.4000  0.3188  0.3266
 1113SOL     OW 3379   2.901   4.613   1.819  0.7422 -0.0073  0.5110
 1113SOL    HW1 3380   2.943   4.610   1.905  0.2349  0.0531  0.7673
 1113SOL    HW2 3381   2.909   4.523   1.786  1.1549  0.0269  0.5147
 1114SOL     OW 3382   2.923   5.787   2.810 -0.4657  1.1012 -0.0523
 1114SOL    HW1 3383   2.986   5.715   2.805  0.4958  1.7806  1.4892
 1114SOL    HW2 3384   2.838   5.745   2.800  0.1654  0.0523 -1.3238
 1115SOL     OW 3385   2.601   4.754   2.799  0.5879 -0.5658  0.6289
 1115SOL    HW1 3386   2.627   4.665   2.774 -0.3434 -0.3677 -1.2014
 1115SOL    HW2 3387   2.517   4.768   2.755  0.3574  0.9598  1.4914
 1116SOL     OW 3388   2.141   4.631   2.447 -0.2429  0.4706  0.0671
 1116SOL    HW1 3389   2.119   4.551   2.399 -0.7765  1.1649 -0.8766
 1116SOL    HW2 3390   2.128   4.608   2.539 -1.3617 -0.2516 -0.2460
 1117SOL     OW 3391   3.102   5.575   1.772  0.2451 -0.1228 -0.3073
 1117SOL    HW1 3392   3.195   5.597   1.771  0.0581  0.7327 -0.0769
 1117SOL    HW2 3393   3.077   5.583   1.865 -0.4721  1.5749 -0.6003
 1118SOL     OW 3394   2.126   4.865   2.316  0.5441 -0.1442  0.2399
 1118SOL    HW1 3395   2.078   4.910   2.385  2.7940  0.3990  1.5564
 1118SOL    HW2 3396   2.135   4.775   2.347  0.6666 -0.1615  0.1551
 1119SOL     OW 3397   2.923   4.709   2.350  0.0103  0.3570  0.1825
 1119SOL    HW1 3398   2.970   4.730   2.431 -1.4851 -0.5397  1.3332
 1119SOL    HW2 3399   2.981   4.648   2.304  0.5375  0.2532  0.9565
 1120SOL     OW 3400   2.899   5.517   2.226 -0.2850 -0.1435  0.7082
 1120SOL    HW1 3401   2.843   5.463   2.170  1.3208  0.6856 -1.9006
 1120SOL    HW2 3402   2.841   5.584   2.261 -1.0318  0.7744 -2.0035
 1121SOL     OW 3403   2.264   5.781   2.357 -0.1086  0.2481 -0.0673
 1121SOL    HW1 3404   2.318   5.859   2.372 -0.7294  0.5567  0.5998
 1121SOL    HW2 3405   2.251   5.779   2.262  0.0496  0.8677 -0.1088
 1122SOL     OW 3406   3.131   2.075   2.484 -0.2523  0.1258  0.2848
 1122SOL    HW1 3407   3.137   2.148   2.545  0.3169  0.1514  0.2041
 1122SOL    HW2 3408   3.045   2.036   2.501 -1.3597  1.9110 -0.9304
 1123SOL     OW 3409   3.013   4.599   2.073 -0.0994 -0.2007  0.3555
 1123SOL    HW1 3410   3.058   4.676   2.108 -1.9120  0.5893  1.0800
 1123SOL    HW2 3411   3.056   4.524   2.115  0.7973  0.4992  0.6998
 1124SOL     OW 3412   6.346   4.756   3.049 -0.1637 -0.4504 -0.3689
 1124SOL    HW1 3413   6.437   4.768   3.078 -0.7979 -0.0304  1.6367
 1124SOL    HW2 3414   6.345   4.792   2.960  1.0993  1.9506  0.4688
 1125SOL     OW 3415   2.743   4.897   2.304 -0.5054 -0.4318 -0.3513
 1125SOL    HW1 3416   2.818   4.838   2.309  0.3274  0.6075 -0.1037
 1125SOL    HW2 3417   2.701   4.876   2.221  0.2590 -0.8139 -0.6513
 1126SOL     OW 3418   2.948   4.327   2.885 -0.1047  0.4329  0.0555
 1126SOL    HW1 3419   3.043   4.326   2.870 -0.1885  0.1161 -0.4660
 1126SOL    HW2 3420   2.930   4.241   2.925 -0.0957  0.7062  0.6575
 1127SOL     OW 3421   3.246   5.609   2.428 -0.4448  0.2356  0.0365
 1127SOL    HW1 3422   3.315   5.638   2.487 -0.2509  0.1459 -0.1453
 1127SOL    HW2 3423   3.280   5.626   2.341 -0.3657 -0.4350 -0.0761
 1128SOL     OW 3424   3.792   5.054   2.455  0.2495  0.5643 -0.1018
 1128SOL    HW1 3425   3.839   5.104   2.521 -0.0797  0.8367 -0.0680
 1128SOL    HW2 3426   3.859   5.022   2.396  0.4677  1.0159 -0.1023
 1129SOL     OW 3427   2.187   1.802   2.202  0.3873  0.6197 -0.4783
 1129SOL    HW1 3428   2.239   1.764   2.273  1.1900  0.3685 -1.1810
 1129SOL    HW2 3429   2.229   1.886   2.184 -0.8673  1.4874  0.4915
 1130SOL     OW 3430   3.506   5.967   2.459  0.4380  0.0431 -0.6424
 1130SOL    HW1 3431   3.476   5.947   2.370 -0.1933 -2.0420 -0.0194
 1130SOL    HW2 3432   3.458   6.047   2.483 -0.8049 -0.4064 -1.5105
 1131SOL     OW 3433   3.322   4.548   1.724 -0.1620 -0.7716 -0.2749
 1131SOL    HW1 3434   3.317   4.463   1.767 -1.1178 -1.0491 -0.9069
 1131SOL    HW2 3435   3.246   4.550   1.666 -0.4188  0.6978  0.0758
 1132SOL     OW 3436   2.768   4.476   2.429 -0.2890  0.3758 -0.4258
 1132SOL    HW1 3437   2.687   4.495   2.380  0.2517 -0.2220 -1.5965
 1132SOL    HW2 3438   2.828   4.545   2.402  0.2271 -0.3397 -1.1619
 1133SOL     OW 3439   3.661   5.359   2.600  0.5788  0.6091  0.3201
 1133SOL    HW1 3440   3.591   5.374   2.663  0.6972 -0.5498  0.7506
 1133SOL    HW2 3441   3.618   5.367   2.515  0.3159  1.6826  0.5328
 1134SOL     OW 3442   2.336   5.465   2.944 -0.0170 -0.1425  0.1826
 1134SOL    HW1 3443   2.349   5.557   2.965  0.8488 -0.3849  0.7848
 1134SOL    HW2 3444   2.286   5.430   3.018 -2.3300  0.2925 -1.0773
 1135SOL     OW 3445   4.167   3.045   0.294  0.4226 -0.0814 -0.0240
 1135SOL    HW1 3446   4.149   3.000   0.212 -1.0153 -0.1931  0.3223
 1135SOL    HW2 3447   4.258   3.022   0.315  0.3002 -1.3281 -0.7781
 1136SOL     OW 3448   3.850   3.465   0.190 -0.4920 -0.1180 -0.0074
 1136SOL    HW1 3449   3.779   3.501   0.137  0.4145  0.9482 -0.5379
 1136SOL    HW2 3450   3.894   3.542   0.226  1.5310 -0.6486 -1.2141
 1137SOL     OW 3451   2.235   5.419   2.190 -0.4333 -0.0244 -0.3922
 1137SOL    HW1 3452   2.283   5.348   2.233  1.1939  1.1513 -0.1758
 1137SOL    HW2 3453   2.193   5.466   2.261 -0.6274 -0.1366 -0.4321
 1138SOL     OW 3454   2.725   4.996   2.802 -0.5733 -0.0566 -0.3369
 1138SOL    HW1 3455   2.685   4.909   2.792  0.7848 -0.8875  0.9703
 1138SOL    HW2 3456   2.695   5.026   2.888  1.6896 -0.8377  0.8283
 1139SOL     OW 3457   3.304   5.520   2.028  0.0263 -0.3702  0.2637
 1139SOL    HW1 3458   3.320   5.524   1.934  0.4655  0.9150  0.3709
 1139SOL    HW2 3459   3.363   5.452   2.059 -0.0791 -0.7666 -0.3808
 1140SOL     OW 3460   3.447   5.707   2.827  0.5385 -0.1081 -0.5325
 1140SOL    HW1 3461   3.400   5.633   2.864  1.2997 -1.4614 -2.1460
 1140SOL    HW2 3462   3.529   5.710   2.875  0.5238 -0.3304 -0.4921
 1141SOL     OW 3463   3.202   5.333   2.475  0.3442  0.3489 -0.2739
 1141SOL    HW1 3464   3.170   5.312   2.387  0.7530 -0.9109 -0.1465
 1141SOL    HW2 3465   3.234   5.423   2.468 -0.0130  0.4152 -1.3049
 1142SOL     OW 3466   0.575   3.517   0.265  0.0111  0.0968 -0.8543
 1142SOL    HW1 3467   0.527   3.599   0.281  0.1938 -0.0056  0.3073
 1142SOL    HW2 3468   0.663   3.546   0.240 -0.2083  0.2611 -1.4612
 1143SOL     OW 3469   0.604   3.277   0.085  0.1896  0.4055 -0.1162
 1143SOL    HW1 3470   0.580   3.338   0.155 -0.5363  0.8141 -0.7046
 1143SOL    HW2 3471   0.539   3.293   0.016  1.2276  0.4022 -1.1151
 1144SOL     OW 3472   2.995   5.278   2.636  0.2417 -0.2355 -0.2583
 1144SOL    HW1 3473   3.050   5.282   2.558  0.5356  0.9645 -0.0017
 1144SOL    HW2 3474   3.057   5.274   2.709 -0.0170 -0.0426 -0.0248
 1145SOL     OW 3475   3.187   4.785   2.158  0.3522  0.8217  0.0379
 1145SOL    HW1 3476   3.259   4.746   2.209  0.4200  0.2325 -0.4984
 1145SOL    HW2 3477   3.172   4.869   2.200  0.5717  0.4541  0.8906
 1146SOL     OW 3478   3.921   3.527   0.743 -0.1175 -0.3644 -0.1751
 1146SOL    HW1 3479   3.888   3.583   0.672  2.0489  0.5868 -0.5151
 1146SOL    HW2 3480   3.914   3.438   0.708 -0.4877 -0.0379 -0.9619
 1147SOL     OW 3481   0.659   3.014   0.081 -0.0904  0.2981 -0.3136
 1147SOL    HW1 3482   0.715   3.021   0.159  0.2585  0.0970 -0.5386
 1147SOL    HW2 3483   0.617   3.099   0.073  1.6589  1.1456 -1.2366
 1148SOL     OW 3484   2.702   4.481   2.709  0.2108 -0.1780 -0.0389
 1148SOL    HW1 3485   2.790   4.446   2.722  0.6753  0.8086 -0.3553
 1148SOL    HW2 3486   2.703   4.513   2.618 -0.9772 -1.5071 -0.5665
 1149SOL     OW 3487   3.457   4.527   2.044 -0.6679 -0.1714 -0.1330
 1149SOL    HW1 3488   3.498   4.481   2.117 -2.5434 -1.5292  0.1490
 1149SOL    HW2 3489   3.423   4.608   2.083 -0.0204  0.0267  0.0451
 1150SOL     OW 3490   2.938   4.688   2.805  0.0497  0.0040 -0.2532
 1150SOL    HW1 3491   2.844   4.690   2.818 -0.0115  0.8753 -0.7619
 1150SOL    HW2 3492   2.973   4.649   2.885 -0.5100  2.5971  1.3839
 1151SOL     OW 3493   3.561   4.070   1.789 -0.0590 -0.3619 -0.2715
 1151SOL    HW1 3494   3.614   3.991   1.782  0.2268 -0.3125  1.0199
 1151SOL    HW2 3495   3.522   4.064   1.876 -0.0129  0.9171 -0.1474
 1152SOL     OW 3496   2.802   4.984   1.887 -0.2928  0.0556 -0.3519
 1152SOL    HW1 3497   2.808   5.058   1.827  2.9634 -0.7810 -1.2357
 1152SOL    HW2 3498   2.866   4.921   1.855 -0.2220 -1.5358  2.5567
 1153SOL     OW 3499   3.055   5.792   2.532  0.2775 -0.2992  0.0895
 1153SOL    HW1 3500   3.112   5.717   2.513  0.2921 -0.4128  0.5663
 1153SOL    HW2 3501   2.990   5.756   2.593 -0.5276 -0.2731 -0.7310
 1154SOL     OW 3502   2.478   5.205   2.805  0.3985  0.6507  0.1630
 1154SOL    HW1 3503   2.417   5.276   2.787  0.5508  0.6519 -0.3641
 1154SOL    HW2 3504   2.539   5.206   2.731 -0.8102 -1.3262 -0.9502
 1155SOL     OW 3505   0.482   2.863   0.196 -0.4745  0.3545  0.0905
 1155SOL    HW1 3506   0.505   2.775   0.166  1.5545  0.4055  1.3739
 1155SOL    HW2 3507   0.541   2.921   0.148 -0.8369  0.9088  0.3034
 1156SOL     OW 3508   2.042   5.106   2.035  0.5557 -0.2859 -0.2341
 1156SOL    HW1 3509   1.996   5.163   2.096  0.3861  0.9761 -1.4778
 1156SOL    HW2 3510   1.973   5.066   1.983  0.7707  1.1578 -1.7136
 1157SOL     OW 3511   6.000   5.977   3.008  0.0175 -0.0278  0.3725
 1157SOL    HW1 3512   5.994   6.046   2.942 -0.3035  0.3768  0.8139
 1157SOL    HW2 3513   6.007   5.896   2.957 -1.6386  0.1401 -0.1942
 1158SOL     OW 3514   6.319   5.699   3.017 -0.1247  0.1260 -0.2788
 1158SOL    HW1 3515   6.229   5.712   2.987 -0.4992  0.9374  1.1077
 1158SOL    HW2 3516   6.321   5.609   3.048 -0.0157 -0.3832 -1.6680
 1159SOL     OW 3517   6.054   4.791   2.842 -0.3852 -0.5756  0.9300
 1159SOL    HW1 3518   6.035   4.876   2.881 -0.8801 -0.8561  1.3144
 1159SOL    HW2 3519   6.148   4.793   2.823 -1.0100  1.7085 -3.0677
 1160SOL     OW 3520   2.519   5.100   1.887  0.2965 -0.1187 -0.2049
 1160SOL    HW1 3521   2.603   5.056   1.873  0.1931  0.2664 -2.2656
 1160SOL    HW2 3522   2.543   5.191   1.903  0.3963 -0.5021  2.2879
 1161SOL     OW 3523   2.206   5.009   1.858  0.0058 -0.1102 -0.8496
 1161SOL    HW1 3524   2.148   5.029   1.932 -2.0119  2.0337 -2.8522
 1161SOL    HW2 3525   2.291   5.045   1.885 -0.4411 -0.1729  0.7683
 1162SOL     OW 3526   3.092   5.286   2.235  0.5018  0.2972  0.0945
 1162SOL    HW1 3527   3.123   5.281   2.145  1.7287  0.6745  0.4739
 1162SOL    HW2 3528   3.035   5.363   2.236 -2.0144 -1.4147 -1.0271
 1163SOL     OW 3529   1.659   3.880   0.083 -0.2822 -0.4385  0.1176
 1163SOL    HW1 3530   1.644   3.895  -0.010 -1.2777  1.0902  0.4825
 1163SOL    HW2 3531   1.746   3.840   0.088 -0.4340 -1.0100 -1.4928
 1164SOL     OW 3532   4.194   3.285   0.469  0.2659  0.1822 -0.4702
 1164SOL    HW1 3533   4.143   3.238   0.402 -1.2478 -1.9174  1.9387
 1164SOL    HW2 3534   4.156   3.255   0.552  3.9884  0.2906  1.4511
 1165SOL     OW 3535   3.732   4.499   2.554 -0.5087  0.3176  0.6271
 1165SOL    HW1 3536   3.673   4.456   2.615  0.9867  1.2187  2.8585
 1165SOL    HW2 3537   3.793   4.431   2.528 -2.6480 -0.7444 -2.0687
 1166SOL     OW 3538   3.091   2.183   2.229  0.4275  0.6435 -0.0985
 1166SOL    HW1 3539   3.123   2.132   2.303  0.7541 -0.3608 -0.9162
 1166SOL    HW2 3540   3.001   2.208   2.254  0.5264  0.3042  0.6203
 1167SOL     OW 3541   2.566   5.652   2.467 -0.5021 -0.0336 -0.4406
 1167SOL    HW1 3542   2.577   5.581   2.404 -0.2385  0.7492 -1.3028
 1167SOL    HW2 3543   2.481   5.690   2.446  0.7524  2.0214 -2.2611
 1168SOL     OW 3544   2.505   1.733   2.085 -0.3607  0.0588  0.1236
 1168SOL    HW1 3545   2.528   1.640   2.083 -1.3085 -0.2151  0.9842
 1168SOL    HW2 3546   2.563   1.774   2.021  0.1459 -1.1073 -0.1827
 1169SOL     OW 3547   1.823   2.606   0.259 -0.0485  0.2151 -0.2719
 1169SOL    HW1 3548   1.739   2.623   0.303  0.5173 -0.6545  1.2198
 1169SOL    HW2 3549   1.860   2.532   0.307  1.7159  0.7723 -0.7216
 1170SOL     OW 3550   2.141   4.569   2.712 -0.6218  0.2566 -0.4163
 1170SOL    HW1 3551   2.122   4.476   2.710 -1.8926  0.4668  0.6908
 1170SOL    HW2 3552   2.223   4.575   2.761 -0.2415 -0.3034 -0.9684
 1171SOL     OW 3553   3.142   1.957   1.594  0.2769 -0.1026  0.2657
 1171SOL    HW1 3554   3.167   1.891   1.659  3.0423  1.5952  1.0914
 1171SOL    HW2 3555   3.135   2.038   1.643  0.5795  0.8942 -1.2625
 1172SOL     OW 3556   2.730   5.350   2.076  0.1305 -0.2341 -0.1362
 1172SOL    HW1 3557   2.755   5.269   2.119 -1.8398 -1.8409 -1.8506
 1172SOL    HW2 3558   2.716   5.326   1.984 -0.8923  1.9440 -0.6200
 1173SOL     OW 3559   3.187   1.559   1.488 -0.3429  0.1863 -0.0691
 1173SOL    HW1 3560   3.097   1.591   1.490 -0.8724 -1.2254 -0.0419
 1173SOL    HW2 3561   3.236   1.619   1.544 -1.4615  0.4136  0.6957
 1174SOL     OW 3562   3.051   5.556   2.706  0.2002 -0.3037 -0.2000
 1174SOL    HW1 3563   2.978   5.498   2.684  0.9164 -1.6400  0.7830
 1174SOL    HW2 3564   3.129   5.502   2.693  1.3441  1.8875 -3.9140
 1175SOL     OW 3565   3.157   4.137   2.552  0.1232  0.5002 -0.2218
 1175SOL    HW1 3566   3.085   4.194   2.525 -0.1213  0.5509  0.5252
 1175SOL    HW2 3567   3.127   4.097   2.634  0.7551  0.1661 -0.1487
 1176SOL     OW 3568   2.576   5.441   2.302 -0.5529  0.3195 -0.2784
 1176SOL    HW1 3569   2.643   5.432   2.235  1.1027 -0.3157  1.3763
 1176SOL    HW2 3570   2.526   5.359   2.297  0.1565 -0.1360 -0.1587
 1177SOL     OW 3571   1.663   1.472   1.805 -0.6131  0.1731  0.4663
 1177SOL    HW1 3572   1.726   1.505   1.741 -2.0724 -1.2706 -1.8433
 1177SOL    HW2 3573   1.693   1.383   1.824 -1.1938 -0.0316  0.4248
 1178SOL     OW 3574   1.929   4.599   1.928  0.0137  0.1344 -0.5947
 1178SOL    HW1 3575   1.903   4.660   1.996  1.7378  0.5054 -0.2211
 1178SOL    HW2 3576   1.981   4.533   1.973  0.1211 -0.3252 -1.3664
 1179SOL     OW 3577   1.717   4.378   2.260 -0.2678  1.0228 -0.1063
 1179SOL    HW1 3578   1.665   4.304   2.292  0.5705 -0.3439 -1.7453
 1179SOL    HW2 3579   1.654   4.433   2.213 -0.5057  0.0228 -1.0147
 1180SOL     OW 3580   3.082   5.660   2.046  0.0996 -0.0129  0.7100
 1180SOL    HW1 3581   3.165   5.620   2.070 -0.3621 -0.3360  1.8479
 1180SOL    HW2 3582   3.023   5.639   2.119 -0.9779  0.2104 -0.0631
 1181SOL     OW 3583   3.341   6.366   2.869  0.1703  0.3308 -0.3978
 1181SOL    HW1 3584   3.248   6.387   2.876  0.6016  2.3427 -0.2310
 1181SOL    HW2 3585   3.366   6.336   2.956 -0.3796 -0.5697 -0.5375
 1182SOL     OW 3586   3.103   5.002   2.321 -0.1315 -0.4422  1.1064
 1182SOL    HW1 3587   3.079   5.077   2.266 -1.3960 -0.3450  1.7426
 1182SOL    HW2 3588   3.037   5.001   2.390  0.4639 -1.5449  1.6971
 1183SOL     OW 3589   2.035   5.465   2.701 -0.6032  0.2442  0.0626
 1183SOL    HW1 3590   2.018   5.478   2.794 -1.3246 -1.6249  0.2389
 1183SOL    HW2 3591   2.109   5.405   2.699 -0.6345  0.2240 -0.5729
 1184SOL     OW 3592   1.445   3.602   0.383  0.3891 -0.1044  0.5768
 1184SOL    HW1 3593   1.455   3.640   0.470  1.1228  0.8417  0.0939
 1184SOL    HW2 3594   1.493   3.520   0.387 -0.2092 -0.4345  1.2765
 1185SOL     OW 3595   3.086   1.550   1.842  0.6852 -0.7996  0.5897
 1185SOL    HW1 3596   2.999   1.541   1.804  0.3203 -0.5333  1.3236
 1185SOL    HW2 3597   3.091   1.480   1.907  1.1931 -1.0931  0.2335
 1186SOL     OW 3598   2.695   5.938   2.610  0.2573 -0.5369  0.3543
 1186SOL    HW1 3599   2.611   5.914   2.573 -0.4243 -0.2835  1.6677
 1186SOL    HW2 3600   2.700   5.890   2.693  1.2212 -0.2293  0.4940
 1187SOL     OW 3601   2.319   5.362   2.612 -0.0245  0.1913 -0.1193
 1187SOL    HW1 3602   2.307   5.456   2.628 -0.9412 -0.3550  3.0464
 1187SOL    HW2 3603   2.398   5.357   2.558  2.2916  2.6558  2.7115
 1188SOL     OW 3604   2.983   5.301   1.902  0.4463 -0.5713 -0.2810
 1188SOL    HW1 3605   3.034   5.363   1.852 -0.1403  1.6861  1.7044
 1188SOL    HW2 3606   3.043   5.270   1.971 -0.1565  0.3807  0.7092
 1189SOL     OW 3607   3.396   1.915   2.242 -0.5052 -0.3878 -0.0185
 1189SOL    HW1 3608   3.390   1.903   2.337 -2.1518 -1.5943 -0.2346
 1189SOL    HW2 3609   3.406   1.826   2.207  1.6044  0.1390 -0.9279
 1190SOL     OW 3610   2.137   5.549   2.441 -0.2243  0.0778 -0.5988
 1190SOL    HW1 3611   2.175   5.635   2.424 -0.2635  0.4825  1.1050
 1190SOL    HW2 3612   2.126   5.546   2.536 -2.2017 -0.9858 -0.7930
 1191SOL     OW 3613   2.562   4.723   2.517 -0.3056  0.1233 -0.1578
 1191SOL    HW1 3614   2.635   4.781   2.498  1.3899 -1.4194  1.2230
 1191SOL    HW2 3615   2.561   4.661   2.444  0.1468 -0.1778  0.0841
 1192SOL     OW 3616   4.073   2.568   0.233 -0.5547 -0.0925 -0.1329
 1192SOL    HW1 3617   4.144   2.595   0.173 -0.2101  0.8325  0.6566
 1192SOL    HW2 3618   4.038   2.651   0.265 -0.5692 -0.5793  1.1288
 1193SOL     OW 3619   2.661   1.442   2.021  0.1334 -0.0286  0.0511
 1193SOL    HW1 3620   2.727   1.485   1.967  0.2953 -0.0990  0.1925
 1193SOL    HW2 3621   2.706   1.422   2.103 -1.2030  3.8158  1.9125
 1194SOL     OW 3622   2.818   4.497   3.067 -0.3134  0.8357  0.0056
 1194SOL    HW1 3623   2.794   4.404   3.060  0.3140  0.7310 -0.9948
 1194SOL    HW2 3624   2.897   4.505   3.014  1.2478  1.3991  2.2590
 1195SOL     OW 3625   2.575   1.293   1.696  0.3002 -0.1035  0.4580
 1195SOL    HW1 3626   2.669   1.288   1.679  0.1603 -1.3088 -0.0953
 1195SOL    HW2 3627   2.567   1.349   1.773  1.4050  0.7035  0.0049
 1196SOL     OW 3628   2.920   4.219   2.037  0.2954 -0.3065 -0.4531
 1196SOL    HW1 3629   2.842   4.164   2.033  0.7508 -1.2526  1.9968
 1196SOL    HW2 3630   2.983   4.168   2.087  2.1897  0.8404 -1.5214
 1197SOL     OW 3631   3.283   4.526   2.508 -0.1573  0.1491  0.1128
 1197SOL    HW1 3632   3.223   4.599   2.523  0.8216  0.8437  0.8696
 1197SOL    HW2 3633   3.300   4.492   2.596  1.3920  0.6782  0.0396
 1198SOL     OW 3634   3.717   4.592   2.935 -0.2995  0.6562  0.5745
 1198SOL    HW1 3635   3.692   4.660   2.873 -1.3877 -1.1236 -1.0277
 1198SOL    HW2 3636   3.726   4.513   2.882  1.7294 -0.3421  2.2348
 1199SOL     OW 3637   2.658   5.086   2.485 -0.4366 -0.1334  0.3796
 1199SOL    HW1 3638   2.697   5.047   2.563  1.4342 -0.6507 -0.7514
 1199SOL    HW2 3639   2.689   5.032   2.412 -3.2854 -0.5554 -0.6628
 1200SOL     OW 3640   2.746   1.930   2.236 -0.4342  0.3030 -0.4009
 1200SOL    HW1 3641   2.741   1.868   2.308  0.3712  0.4491 -0.2109
 1200SOL    HW2 3642   2.663   1.919   2.189  0.2479 -1.9945 -1.2432
 1201SOL     OW 3643   3.963   4.697   3.056  0.1101 -0.5138 -0.0340
 1201SOL    HW1 3644   3.994   4.715   3.145  0.6018 -3.5754  0.5484
 1201SOL    HW2 3645   3.899   4.627   3.067 -3.7751  2.4427 -1.7077
 1202SOL     OW 3646   1.885   2.089   1.078  0.4855 -0.6585 -0.2909
 1202SOL    HW1 3647   1.976   2.061   1.075  0.2163 -1.6460  0.3953
 1202SOL    HW2 3648   1.847   2.058   0.996  0.5550 -1.0050 -0.1922
 1203SOL     OW 3649   1.892   2.233   0.657 -0.2279  0.2222 -0.1834
 1203SOL    HW1 3650   1.814   2.202   0.612 -0.7704 -1.1342  1.5918
 1203SOL    HW2 3651   1.954   2.160   0.652  0.0699  0.4308  0.3968
 1204SOL     OW 3652   2.235   3.413   1.371 -0.0106 -0.0166 -0.2258
 1204SOL    HW1 3653   2.147   3.420   1.333  0.5572 -0.1247 -1.6165
 1204SOL    HW2 3654   2.287   3.478   1.323  1.0429 -1.0865 -0.5729
 1205SOL     OW 3655   3.626   3.112   0.716 -0.5463 -0.0027  0.2029
 1205SOL    HW1 3656   3.532   3.105   0.698 -0.5391 -0.6226  0.3746
 1205SOL    HW2 3657   3.631   3.142   0.806 -0.5745 -0.0140  0.2083
 1206SOL     OW 3658   2.703   3.072   0.523 -0.4015  0.1489 -0.2891
 1206SOL    HW1 3659   2.698   3.166   0.543 -1.8051  0.2273 -0.8922
 1206SOL    HW2 3660   2.648   3.030   0.589 -2.1819  0.0637 -1.7782
 1207SOL     OW 3661   5.412   4.512   2.644  0.1275 -0.0086 -0.2732
 1207SOL    HW1 3662   5.393   4.550   2.558 -0.7213 -0.0492 -0.1100
 1207SOL    HW2 3663   5.485   4.564   2.678  2.9649 -2.2336 -2.5071
 1208SOL     OW 3664   2.459   3.072   1.379 -0.2362 -0.8544  0.4337
 1208SOL    HW1 3665   2.508   3.154   1.389 -0.0615 -0.7993 -0.6861
 1208SOL    HW2 3666   2.456   3.058   1.284 -3.7414 -0.0525  0.3046
 1209SOL     OW 3667   2.736   2.733   1.868 -0.5367  0.6220 -0.4742
 1209SOL    HW1 3668   2.660   2.790   1.879 -0.7263  0.2217  0.4158
 1209SOL    HW2 3669   2.809   2.792   1.852 -0.4104  1.2726  2.1185
 1210SOL     OW 3670   2.524   2.981   0.721  0.2152 -0.4378  0.7667
 1210SOL    HW1 3671   2.429   2.983   0.737  0.3433 -0.2641  1.5571
 1210SOL    HW2 3672   2.553   2.898   0.758  0.8165  0.8174  3.4037
 1211SOL     OW 3673   2.357   3.107   1.774  0.1416  0.3370  0.0848
 1211SOL    HW1 3674   2.359   3.044   1.702 -1.4584 -0.6770  0.8562
 1211SOL    HW2 3675   2.313   3.184   1.738 -0.7539 -0.2092 -0.0290
 1212SOL     OW 3676   1.845   3.266   1.478 -0.1068 -0.0492  0.3116
 1212SOL    HW1 3677   1.788   3.197   1.445  0.8047  0.3898 -2.4316
 1212SOL    HW2 3678   1.917   3.219   1.520 -0.3853 -0.7096  0.0688
 1213SOL     OW 3679   1.945   2.238   1.568  0.0773  0.2372  0.2118
 1213SOL    HW1 3680   1.876   2.201   1.625 -0.1332 -0.5731 -0.5382
 1213SOL    HW2 3681   1.949   2.330   1.592 -0.3397  0.0107  1.2099
 1214SOL     OW 3682   3.431   2.481   0.691  0.2373 -0.1364 -0.8044
 1214SOL    HW1 3683   3.436   2.388   0.713  1.6523 -0.1735 -1.1783
 1214SOL    HW2 3684   3.460   2.526   0.771 -0.7181  0.0120 -0.5281
 1215SOL     OW 3685   1.783   3.918   0.530 -0.3247  0.3534 -0.1981
 1215SOL    HW1 3686   1.849   3.865   0.486 -1.3221 -1.2275  0.1574
 1215SOL    HW2 3687   1.771   3.877   0.615 -1.6251  0.7243 -0.1731
 1216SOL     OW 3688   1.768   3.494   0.627 -0.0573  0.1612  0.1586
 1216SOL    HW1 3689   1.697   3.439   0.658  0.0725  0.2238  0.5832
 1216SOL    HW2 3690   1.835   3.433   0.597 -0.6345  0.1022 -1.0819
 1217SOL     OW 3691   2.242   2.933   0.758  0.8782  0.2511 -0.0565
 1217SOL    HW1 3692   2.279   2.872   0.693 -0.9960 -1.1530  0.1185
 1217SOL    HW2 3693   2.224   2.879   0.834 -0.7520  1.0233  0.1479
 1218SOL     OW 3694   2.359   3.351   1.624  0.0992 -0.1786 -0.1114
 1218SOL    HW1 3695   2.359   3.439   1.662  2.8384  1.2488 -2.8985
 1218SOL    HW2 3696   2.316   3.362   1.540 -0.8631 -1.9006  0.1341
 1219SOL     OW 3697   3.182   2.134   1.318  0.4111 -0.0382 -0.3064
 1219SOL    HW1 3698   3.277   2.127   1.306  0.5996  0.4243  0.8045
 1219SOL    HW2 3699   3.172   2.190   1.395 -0.7493 -0.9229  0.2132
 1220SOL     OW 3700   1.607   2.504   0.592 -0.1597  0.1277 -0.0459
 1220SOL    HW1 3701   1.591   2.415   0.561  0.4157  0.4444 -1.3138
 1220SOL    HW2 3702   1.632   2.493   0.684 -0.5317 -0.9746 -0.0650
 1221SOL     OW 3703   3.544   3.591   0.494 -0.0388  0.1426  0.0588
 1221SOL    HW1 3704   3.525   3.514   0.440 -0.8604  0.6584 -0.3992
 1221SOL    HW2 3705   3.638   3.604   0.485  0.0449 -0.5893 -0.1600
 1222SOL     OW 3706   3.890   5.896   2.847  0.5037  0.0783  0.0148
 1222SOL    HW1 3707   3.882   5.801   2.855  1.0531 -0.2628 -2.7018
 1222SOL    HW2 3708   3.978   5.910   2.813  0.3230  1.5360  0.1028
 1223SOL     OW 3709   3.527   2.811   0.455  0.2152  0.2672 -0.1048
 1223SOL    HW1 3710   3.552   2.778   0.368 -0.1430  1.3570 -0.6411
 1223SOL    HW2 3711   3.560   2.745   0.516  0.7163 -0.3835 -1.0501
 1224SOL     OW 3712   3.346   2.914   0.810 -0.0406 -0.2945  0.1062
 1224SOL    HW1 3713   3.338   2.992   0.756 -0.3632  0.6552  1.4608
 1224SOL    HW2 3714   3.430   2.876   0.786  0.4419  0.8609 -0.0927
 1225SOL     OW 3715   2.226   2.777   0.967 -0.1076  0.2269 -0.5607
 1225SOL    HW1 3716   2.268   2.706   0.919 -0.3804  0.2699 -0.8639
 1225SOL    HW2 3717   2.166   2.734   1.027 -0.7819  0.2233 -1.2282
 1226SOL     OW 3718   2.535   3.204   0.931 -0.2988 -0.1082  0.0658
 1226SOL    HW1 3719   2.556   3.128   0.876 -1.6520  1.2911 -2.6141
 1226SOL    HW2 3720   2.493   3.167   1.009  1.7993 -2.2117  0.3190
 1227SOL     OW 3721   2.393   1.673   0.536  0.5449  0.4788  0.1197
 1227SOL    HW1 3722   2.410   1.746   0.477  2.3664  0.0970  0.1249
 1227SOL    HW2 3723   2.384   1.597   0.479  1.2801  0.2787  0.2630
 1228SOL     OW 3724   2.164   3.151   1.089  0.8485 -0.5837 -0.3075
 1228SOL    HW1 3725   2.192   3.242   1.087 -0.7798  0.0165  1.4386
 1228SOL    HW2 3726   2.244   3.102   1.105  1.6065  0.6209 -0.2908
 1229SOL     OW 3727   2.233   2.103   1.878  0.5297 -0.3695 -0.3460
 1229SOL    HW1 3728   2.256   2.195   1.870  1.5894 -0.6821 -1.0716
 1229SOL    HW2 3729   2.167   2.101   1.948  1.0855  0.8343  0.2375
 1230SOL     OW 3730   3.487   2.964   1.171 -0.4755 -0.7390 -0.5992
 1230SOL    HW1 3731   3.484   2.989   1.263  0.8888 -0.2204 -0.6654
 1230SOL    HW2 3732   3.397   2.972   1.141 -0.7294  0.3343  0.3806
 1231SOL     OW 3733   3.252   3.471   0.418 -0.0839 -0.0522  0.6373
 1231SOL    HW1 3734   3.196   3.469   0.341  0.6290  1.9415  0.0080
 1231SOL    HW2 3735   3.326   3.415   0.396  0.8370  1.6342 -0.7694
 1232SOL     OW 3736   3.174   2.323   0.896  0.1260 -0.2417  0.2546
 1232SOL    HW1 3737   3.257   2.290   0.862 -0.3512 -1.9098  0.6400
 1232SOL    HW2 3738   3.199   2.369   0.977  0.7829  0.2648 -0.2216
 1233SOL     OW 3739   2.565   2.321   1.669  0.1231 -0.2019  0.2107
 1233SOL    HW1 3740   2.488   2.283   1.711  1.2832 -0.4825  2.1951
 1233SOL    HW2 3741   2.569   2.411   1.703  0.1251  0.1435 -0.6733
 1234SOL     OW 3742   3.158   2.384   1.485 -0.0945  0.1046 -0.3546
 1234SOL    HW1 3743   3.131   2.415   1.571 -1.5381 -0.8502 -0.4049
 1234SOL    HW2 3744   3.249   2.410   1.477 -0.8872  3.4744 -0.0626
 1235SOL     OW 3745   2.417   2.527   1.394  0.2145 -0.0662 -0.5243
 1235SOL    HW1 3746   2.348   2.523   1.328  0.3204 -1.0177 -0.5905
 1235SOL    HW2 3747   2.467   2.446   1.382  1.5841  0.7896 -0.7343
 1236SOL     OW 3748   2.925   2.290   1.023 -0.0930  0.0022 -0.1225
 1236SOL    HW1 3749   2.930   2.241   1.105 -0.9736  0.1280  0.0200
 1236SOL    HW2 3750   3.007   2.271   0.978  0.9890  0.9856  1.3689
 1237SOL     OW 3751   2.978   2.374   0.719  0.1910  0.0334  0.0428
 1237SOL    HW1 3752   3.053   2.351   0.774  0.3713  1.2503  0.3229
 1237SOL    HW2 3753   3.012   2.373   0.630  0.1379 -0.9745  0.0205
 1238SOL     OW 3754   1.769   2.808   0.864  0.0138  0.1942  0.3583
 1238SOL    HW1 3755   1.836   2.775   0.805 -1.1237 -1.1961 -0.2322
 1238SOL    HW2 3756   1.768   2.746   0.937  0.1037  0.8315  0.9185
 1239SOL     OW 3757   2.012   3.789   2.141 -0.3021  0.5697  0.7644
 1239SOL    HW1 3758   2.052   3.824   2.221  1.5688 -0.2752  0.2618
 1239SOL    HW2 3759   2.081   3.796   2.075 -1.1692 -0.4994 -0.2969
 1240SOL     OW 3760   2.649   2.277   0.088 -0.4003 -0.3678  0.1862
 1240SOL    HW1 3761   2.654   2.281   0.184 -3.7513 -1.0820  0.5144
 1240SOL    HW2 3762   2.669   2.185   0.067 -1.1624 -0.5774  0.3623
 1241SOL     OW 3763   3.272   2.824   0.499 -0.1121  0.2721 -0.5437
 1241SOL    HW1 3764   3.365   2.829   0.477 -0.0134  0.4596 -0.1049
 1241SOL    HW2 3765   3.236   2.907   0.470 -0.4930 -0.4310 -2.2166
 1242SOL     OW 3766   2.117   1.615   0.509 -0.0142  0.2142  0.2758
 1242SOL    HW1 3767   2.126   1.529   0.468  0.7935  0.1723  0.5320
 1242SOL    HW2 3768   2.199   1.628   0.557 -0.0118  1.2480  0.0121
 1243SOL     OW 3769   2.664   3.499   0.312  0.0804 -0.1743 -0.2235
 1243SOL    HW1 3770   2.646   3.496   0.218  2.0983  2.7698 -0.8565
 1243SOL    HW2 3771   2.584   3.533   0.351 -0.6069 -0.9621 -0.9103
 1244SOL     OW 3772   2.203   3.504   0.761  0.7021  0.3250  0.3120
 1244SOL    HW1 3773   2.218   3.435   0.696 -1.3589  1.1886 -1.1669
 1244SOL    HW2 3774   2.254   3.578   0.729  1.5161  0.0790  0.9734
 1245SOL     OW 3775   3.237   2.473   1.132  0.2188  0.5832 -0.5111
 1245SOL    HW1 3776   3.302   2.438   1.194  0.2199  0.8648 -0.3509
 1245SOL    HW2 3777   3.157   2.482   1.183  0.3093  1.1384 -0.4551
 1246SOL     OW 3778   3.205   2.552   0.500  0.0383  0.1789  0.3021
 1246SOL    HW1 3779   3.268   2.525   0.567 -1.7666 -1.0017  1.5992
 1246SOL    HW2 3780   3.205   2.648   0.504  1.8339  0.2182  0.1391
 1247SOL     OW 3781   2.245   2.739   1.796  0.2002  0.0520  0.0072
 1247SOL    HW1 3782   2.293   2.784   1.727  0.5849 -0.3841 -0.0235
 1247SOL    HW2 3783   2.201   2.666   1.751  1.1273 -0.7323  0.3314
 1248SOL     OW 3784   1.911   1.934   2.001  0.1788 -0.0448 -0.3875
 1248SOL    HW1 3785   1.884   1.901   2.087  3.0224 -1.3368  0.0969
 1248SOL    HW2 3786   1.913   1.857   1.944 -0.1400  0.5358 -1.2132
 1249SOL     OW 3787   2.288   3.926   1.159  0.2919  0.4523  0.1838
 1249SOL    HW1 3788   2.228   3.885   1.096  0.0561  1.5436 -0.3307
 1249SOL    HW2 3789   2.372   3.926   1.114 -0.0285  1.8944 -0.4567
 1250SOL     OW 3790   3.271   3.811   0.795  0.3067 -0.3267 -0.2971
 1250SOL    HW1 3791   3.351   3.761   0.779 -1.2075 -2.7385 -0.8460
 1250SOL    HW2 3792   3.210   3.781   0.728 -1.5463  0.2887  1.0305
 1251SOL     OW 3793   2.040   2.437   0.504  0.0268 -0.1076  0.3945
 1251SOL    HW1 3794   1.983   2.400   0.572 -1.0083  1.0715  0.1950
 1251SOL    HW2 3795   2.002   2.406   0.422 -0.9797  1.4930  0.2134
 1252SOL     OW 3796   3.218   2.218   1.766 -0.1046  0.0149 -0.0202
 1252SOL    HW1 3797   3.310   2.196   1.754 -0.5031 -1.0900 -1.4042
 1252SOL    HW2 3798   3.195   2.181   1.851  0.6995  0.2477  0.3111
 1253SOL     OW 3799   2.280   2.090   1.496 -0.2773  0.4043  0.0774
 1253SOL    HW1 3800   2.209   2.141   1.536 -1.7254 -0.0998 -1.7182
 1253SOL    HW2 3801   2.340   2.073   1.568 -2.1370  0.5830  1.7662
 1254SOL     OW 3802   3.145   3.587   1.306 -0.3552 -0.6327  0.0616
 1254SOL    HW1 3803   3.166   3.594   1.399 -0.1427 -0.0354 -0.0238
 1254SOL    HW2 3804   3.228   3.565   1.264 -0.7442 -2.4724  0.1651
 1255SOL     OW 3805   3.035   2.523   1.305 -0.0003  0.4774 -0.0923
 1255SOL    HW1 3806   2.949   2.520   1.348  0.3173  0.7409  0.5665
 1255SOL    HW2 3807   3.090   2.465   1.357  0.4043  0.8563 -0.0909
 1256SOL     OW 3808   2.911   3.421   1.274 -0.0467  0.7632 -0.2405
 1256SOL    HW1 3809   2.985   3.478   1.296 -1.2603  2.0879  0.5903
 1256SOL    HW2 3810   2.840   3.450   1.331 -1.0372 -0.9147 -0.5403
 1257SOL     OW 3811   2.744   2.405   0.581  0.0708 -0.1159 -0.0559
 1257SOL    HW1 3812   2.725   2.491   0.544  0.5394 -0.3775 -0.9489
 1257SOL    HW2 3813   2.823   2.418   0.634 -1.0795  0.4398  1.5938
 1258SOL     OW 3814   2.376   1.508   0.305 -0.6835 -0.3013  0.0845
 1258SOL    HW1 3815   2.291   1.465   0.301 -0.5945 -0.4021 -1.2423
 1258SOL    HW2 3816   2.404   1.513   0.214  0.2985  0.5989  0.4169
 1259SOL     OW 3817   2.650   2.001   0.532 -1.2338  0.0861 -0.3067
 1259SOL    HW1 3818   2.655   2.062   0.606  1.0786  0.7497 -0.9218
 1259SOL    HW2 3819   2.557   1.998   0.510 -1.4126  4.7407 -1.2885
 1260SOL     OW 3820   2.900   2.705   1.095  0.3388  0.2111  0.1181
 1260SOL    HW1 3821   2.972   2.652   1.130 -0.4365 -0.0159  1.4351
 1260SOL    HW2 3822   2.836   2.709   1.166 -0.9520  0.4378 -1.0094
 1261SOL     OW 3823   3.475   3.634   0.766  0.0526  0.4280  0.2541
 1261SOL    HW1 3824   3.522   3.627   0.683  1.0546 -0.6813  0.8870
 1261SOL    HW2 3825   3.534   3.595   0.830 -1.9859 -1.7139  0.9795
 1262SOL     OW 3826   2.511   3.373   0.722 -0.1786  0.7290 -0.3289
 1262SOL    HW1 3827   2.440   3.324   0.681  0.3767  0.2376 -0.7146
 1262SOL    HW2 3828   2.545   3.314   0.789  0.6196  0.4963 -0.9249
 1263SOL     OW 3829   3.305   3.434   0.701  0.3893 -0.1757 -0.0181
 1263SOL    HW1 3830   3.284   3.450   0.609 -1.2176  0.7559  0.4721
 1263SOL    HW2 3831   3.349   3.514   0.729 -0.2238  0.0390  0.3340
 1264SOL     OW 3832   1.627   2.094   1.487 -0.1743  0.5265  0.8068
 1264SOL    HW1 3833   1.662   2.020   1.537 -1.6383 -0.7443  0.0827
 1264SOL    HW2 3834   1.645   2.171   1.540  1.5903 -0.3175  1.4985
 1265SOL     OW 3835   2.568   2.314   1.298  0.3880  0.2943 -0.3356
 1265SOL    HW1 3836   2.636   2.277   1.355 -0.4330  1.8982  1.8396
 1265SOL    HW2 3837   2.617   2.350   1.224  1.7344 -0.0873  0.3309
 1266SOL     OW 3838   2.377   1.995   0.505  0.3832  0.3395  0.2844
 1266SOL    HW1 3839   2.308   2.018   0.444  0.1971 -3.4282 -1.1845
 1266SOL    HW2 3840   2.348   2.031   0.589 -1.6743  1.6740 -0.9259
 1267SOL     OW 3841   2.472   2.218   0.932  0.2099  0.2675  0.3897
 1267SOL    HW1 3842   2.464   2.313   0.947  3.5180  0.6383  0.5683
 1267SOL    HW2 3843   2.495   2.183   1.018 -2.8773 -1.0936  0.7673
 1268SOL     OW 3844   2.692   3.341   0.516 -0.7263 -0.4195  0.0618
 1268SOL    HW1 3845   2.638   3.374   0.588  0.0873  1.4177 -0.1305
 1268SOL    HW2 3846   2.684   3.407   0.447  2.7298  0.6220  0.4990
 1269SOL     OW 3847   3.287   1.989   0.984  0.5724  0.3060  0.0214
 1269SOL    HW1 3848   3.230   2.011   0.910  1.4432  0.1516 -0.7099
 1269SOL    HW2 3849   3.226   1.974   1.057 -0.5167 -1.9931 -1.2465
 1270SOL     OW 3850   3.769   2.734   0.070  0.2053 -0.0363  0.1020
 1270SOL    HW1 3851   3.741   2.643   0.071 -0.4548  0.1057 -1.8209
 1270SOL    HW2 3852   3.802   2.750   0.159 -1.9307 -1.4166  1.2089
 1271SOL     OW 3853   3.348   3.159   0.693  0.4283  0.3053  0.2440
 1271SOL    HW1 3854   3.308   3.149   0.607  0.3511 -0.6595  0.3809
 1271SOL    HW2 3855   3.317   3.244   0.724 -1.0369 -0.1416  0.0883
 1272SOL     OW 3856   2.215   2.187   0.308 -0.5828 -0.0854 -0.3610
 1272SOL    HW1 3857   2.195   2.267   0.357 -0.9693  1.2832 -2.5599
 1272SOL    HW2 3858   2.297   2.207   0.263 -0.4879 -1.0821 -0.6459
 1273SOL     OW 3859   2.855   3.147   1.251  0.0890 -0.5401  0.2553
 1273SOL    HW1 3860   2.816   3.153   1.338  0.7425  0.4735  0.4897
 1273SOL    HW2 3861   2.899   3.231   1.238 -2.7960  0.7717 -2.4093
 1274SOL     OW 3862   3.251   2.940   1.069 -0.9116  0.1748 -0.2238
 1274SOL    HW1 3863   3.160   2.940   1.039 -0.8867  0.0350 -0.2980
 1274SOL    HW2 3864   3.301   2.917   0.991 -0.8179  0.1747 -0.1632
 1275SOL     OW 3865   3.182   3.334   0.926  0.3418 -0.1572  0.1307
 1275SOL    HW1 3866   3.215   3.368   0.843 -0.6696  0.6306  0.0340
 1275SOL    HW2 3867   3.089   3.316   0.910  0.1553 -0.0978  1.0582
 1276SOL     OW 3868   2.671   1.984   1.454 -0.7766 -0.7115  0.5255
 1276SOL    HW1 3869   2.749   1.929   1.462 -2.1248 -2.8750 -0.1058
 1276SOL    HW2 3870   2.702   2.073   1.471  1.8582 -1.4369 -0.0122
 1277SOL     OW 3871   2.997   2.741   2.175 -0.2006 -0.2848  0.0282
 1277SOL    HW1 3872   2.958   2.816   2.130  1.0414  0.4295  0.1077
 1277SOL    HW2 3873   3.050   2.780   2.245 -0.9401 -1.3135  1.2058
 1278SOL     OW 3874   2.611   2.665   0.714 -0.0308  0.0996  0.0219
 1278SOL    HW1 3875   2.631   2.676   0.621  0.5731  0.4608  0.1889
 1278SOL    HW2 3876   2.691   2.627   0.752 -0.9234 -1.8937  0.0562
 1279SOL     OW 3877   2.396   2.972   1.099  0.1781 -0.3529 -0.2878
 1279SOL    HW1 3878   2.478   2.922   1.098  0.5937  0.2833  0.3257
 1279SOL    HW2 3879   2.330   2.911   1.068  0.6269 -1.3486  0.6369
 1280SOL     OW 3880   3.395   2.350   1.306 -0.0690  0.1543 -0.0646
 1280SOL    HW1 3881   3.469   2.375   1.361  0.4373  1.6831 -1.3412
 1280SOL    HW2 3882   3.420   2.265   1.269  0.1040 -0.3216  1.1045
 1281SOL     OW 3883   1.636   3.650   1.116  0.8137 -0.3913 -0.3899
 1281SOL    HW1 3884   1.617   3.574   1.061  2.7394 -1.7611  0.7303
 1281SOL    HW2 3885   1.608   3.624   1.204  1.5087  0.1900  0.0156
 1282SOL     OW 3886   1.994   3.363   0.550 -0.0145 -0.2147  0.4063
 1282SOL    HW1 3887   2.046   3.362   0.469 -0.9358  1.6804 -0.2913
 1282SOL    HW2 3888   2.008   3.277   0.589  0.8052 -1.0465 -1.5627
 1283SOL     OW 3889   2.292   2.112   0.747  0.1092 -0.3631  0.3771
 1283SOL    HW1 3890   2.298   2.198   0.704  0.7077 -0.7713 -0.3723
 1283SOL    HW2 3891   2.347   2.120   0.825  0.5057 -0.2029  0.0800
 1284SOL     OW 3892   3.202   3.114   0.463 -0.7224 -0.0369 -0.1456
 1284SOL    HW1 3893   3.177   3.117   0.371  0.7080  2.1844 -0.5478
 1284SOL    HW2 3894   3.134   3.164   0.508 -0.7458 -0.0291 -0.1898
 1285SOL     OW 3895   3.118   3.074   1.286  0.3653  0.0043 -0.5333
 1285SOL    HW1 3896   3.027   3.101   1.276  0.2794 -0.5091 -1.2308
 1285SOL    HW2 3897   3.141   3.037   1.201  2.0078  2.3426 -1.1868
 1286SOL     OW 3898   3.602   2.593   0.303 -0.7030 -0.1154  0.0536
 1286SOL    HW1 3899   3.597   2.570   0.210 -0.0325 -1.2484  0.2929
 1286SOL    HW2 3900   3.572   2.515   0.349 -1.8083  0.7092  0.7906
 1287SOL     OW 3901   2.352   3.965   1.659 -0.2379  0.0645 -0.5457
 1287SOL    HW1 3902   2.280   3.928   1.712  0.0187  0.5549  0.1587
 1287SOL    HW2 3903   2.315   3.972   1.571 -1.0185  0.1733 -0.2232
 1288SOL     OW 3904   2.195   2.455   1.595 -0.9086 -0.2434 -0.2264
 1288SOL    HW1 3905   2.112   2.475   1.552 -0.8231  0.8640  0.0872
 1288SOL    HW2 3906   2.261   2.491   1.537 -0.7341  0.2402  0.2669
 1289SOL     OW 3907   2.665   2.207   1.957 -0.5211  0.1529 -0.3245
 1289SOL    HW1 3908   2.625   2.122   1.975  1.2137 -0.2862  1.9144
 1289SOL    HW2 3909   2.719   2.192   1.880 -0.6330 -0.6308 -0.2594
 1290SOL     OW 3910   2.306   2.370   1.820  0.2137  0.3453  0.2466
 1290SOL    HW1 3911   2.305   2.452   1.868  1.0754 -0.6857  2.1355
 1290SOL    HW2 3912   2.268   2.391   1.735  1.5804  2.9851  0.1814
 1291SOL     OW 3913   2.589   2.770   1.053  0.2856 -0.3863  0.0415
 1291SOL    HW1 3914   2.578   2.744   1.145 -1.3662 -0.1031 -0.0376
 1291SOL    HW2 3915   2.636   2.697   1.013  0.3200 -0.8794  0.9432
 1292SOL     OW 3916   2.922   3.051   0.764  0.1341 -0.3238 -0.0901
 1292SOL    HW1 3917   2.938   3.026   0.855  1.0016  1.2221  0.2213
 1292SOL    HW2 3918   2.988   3.002   0.715  1.6849  1.0771  0.4841
 1293SOL     OW 3919   2.335   1.826   1.052  0.5804 -0.2027 -0.0889
 1293SOL    HW1 3920   2.411   1.872   1.085 -0.3708  1.8516 -0.6232
 1293SOL    HW2 3921   2.361   1.797   0.964  0.6438  0.8271 -0.4217
 1294SOL     OW 3922   1.567   3.298   1.313  0.4208 -0.2284  0.2285
 1294SOL    HW1 3923   1.590   3.233   1.379  1.6834 -0.4299 -0.3697
 1294SOL    HW2 3924   1.471   3.295   1.308  0.3840 -1.0924  1.1413
 1295SOL     OW 3925   2.740   2.448   1.155  0.4965 -0.2173 -0.4677
 1295SOL    HW1 3926   2.821   2.397   1.145  0.5025 -0.4865  0.8215
 1295SOL    HW2 3927   2.751   2.494   1.238 -0.3029  0.4510 -0.7233
 1296SOL     OW 3928   2.049   1.740   0.164 -0.7763  0.6081 -0.5961
 1296SOL    HW1 3929   2.134   1.759   0.124 -0.4444  0.5753  0.0785
 1296SOL    HW2 3930   2.053   1.781   0.250 -1.5256  0.7801 -0.6381
 1297SOL     OW 3931   2.831   2.583   0.850  0.2228  0.0628  0.1706
 1297SOL    HW1 3932   2.875   2.621   0.926  0.6964  0.9678 -0.5368
 1297SOL    HW2 3933   2.870   2.496   0.840  0.4432  0.0978  0.7121
 1298SOL     OW 3934   3.643   3.484   1.910  0.1069 -0.2525  0.0449
 1298SOL    HW1 3935   3.590   3.562   1.922  1.9016  1.0550 -0.1973
 1298SOL    HW2 3936   3.647   3.444   1.997 -1.3888 -0.5152  0.0307
 1299SOL     OW 3937   2.028   2.913   1.481  0.3254  0.1082 -0.2893
 1299SOL    HW1 3938   1.951   2.903   1.537  1.4531 -0.0382  1.3179
 1299SOL    HW2 3939   2.073   2.829   1.487  0.5247  0.1244 -1.3649
 1300SOL     OW 3940   3.265   3.303   1.207 -0.2161  0.5064  0.3520
 1300SOL    HW1 3941   3.217   3.232   1.250  1.6913 -1.0391  0.0471
 1300SOL    HW2 3942   3.229   3.307   1.119 -0.1813 -0.2304  0.3013
 1301SOL     OW 3943   1.978   2.674   0.757  0.5697  0.0527 -0.6586
 1301SOL    HW1 3944   2.021   2.707   0.679 -0.5379 -0.2192 -1.4031
 1301SOL    HW2 3945   2.005   2.582   0.763 -0.1863 -0.2184 -1.3304
 1302SOL     OW 3946   2.044   1.999   0.699  0.8209  0.1787 -0.2466
 1302SOL    HW1 3947   2.041   1.923   0.757  1.7839 -0.7985 -1.4271
 1302SOL    HW2 3948   2.124   2.046   0.725  0.3606  0.6736  0.3127
 1303SOL     OW 3949   2.772   2.564   1.384  0.2059 -0.1948 -0.2911
 1303SOL    HW1 3950   2.723   2.646   1.386  1.6130  0.7057 -0.6884
 1303SOL    HW2 3951   2.794   2.547   1.476  1.0648  0.6397 -0.3209
 1304SOL     OW 3952   2.766   2.271   1.504 -0.3010  0.3782 -0.1923
 1304SOL    HW1 3953   2.686   2.280   1.556 -0.6432 -1.2320 -0.3849
 1304SOL    HW2 3954   2.837   2.280   1.568 -0.7100 -1.0970  0.5219
 1305SOL     OW 3955   1.801   2.822   0.109 -0.5403 -0.4069  0.3661
 1305SOL    HW1 3956   1.728   2.782   0.061 -0.7190 -0.8198  0.9626
 1305SOL    HW2 3957   1.828   2.754   0.171 -0.4972  0.2099  1.0280
 1306SOL     OW 3958   2.009   3.466   1.221 -0.1788 -0.6860  0.3058
 1306SOL    HW1 3959   1.934   3.415   1.193 -0.1064 -1.0562  0.7561
 1306SOL    HW2 3960   2.044   3.505   1.141 -1.0674 -0.2091  0.1499
 1307SOL     OW 3961   2.234   3.414   1.024  0.3654  0.0208 -0.6329
 1307SOL    HW1 3962   2.229   3.453   0.936  1.3176 -1.1654 -1.2428
 1307SOL    HW2 3963   2.304   3.464   1.068  0.8764 -0.3117 -1.0547
 1308SOL     OW 3964   2.971   2.951   1.014  0.2089 -0.3628 -0.1646
 1308SOL    HW1 3965   2.936   2.863   1.029 -0.7964 -0.3532 -2.0594
 1308SOL    HW2 3966   2.900   3.009   1.042  1.0402 -0.0814  1.5084
 1309SOL     OW 3967   1.723   2.465   0.855 -0.1014 -0.1001 -0.6304
 1309SOL    HW1 3968   1.784   2.406   0.811  1.0739  0.5942  0.0154
 1309SOL    HW2 3969   1.719   2.433   0.945  0.9511  1.0723 -0.1351
 1310SOL     OW 3970   2.228   2.502   1.231 -0.4118  0.2552 -0.4561
 1310SOL    HW1 3971   2.178   2.560   1.174 -0.1269  0.7633 -0.1895
 1310SOL    HW2 3972   2.164   2.436   1.259 -0.9640  0.9605 -0.0292
 1311SOL     OW 3973   2.408   2.397   0.347  0.2650  0.3884  0.2109
 1311SOL    HW1 3974   2.400   2.443   0.263  0.1241  2.1770  1.1565
 1311SOL    HW2 3975   2.497   2.361   0.346  0.4636  0.8772 -0.4814
 1312SOL     OW 3976   3.728   2.582   1.113 -0.2687 -0.1504  0.0805
 1312SOL    HW1 3977   3.815   2.579   1.074  0.3771  0.5732  1.3732
 1312SOL    HW2 3978   3.720   2.499   1.161  0.4303  0.4928  1.3577
 1313SOL     OW 3979   1.652   3.146   1.798 -0.1933 -0.2523  0.1447
 1313SOL    HW1 3980   1.738   3.164   1.836  1.0850 -1.7106 -1.8606
 1313SOL    HW2 3981   1.622   3.067   1.842 -0.1778 -0.1672  0.3113
 1314SOL     OW 3982   2.332   2.185   1.241  0.2804  0.2529 -0.2592
 1314SOL    HW1 3983   2.313   2.146   1.326 -0.5374  2.1791  0.4923
 1314SOL    HW2 3984   2.399   2.251   1.259 -1.0564  1.8210 -0.7658
 1315SOL     OW 3985   2.704   3.549   1.384  0.1046 -0.2134  0.1966
 1315SOL    HW1 3986   2.648   3.567   1.460  2.7715  0.8132  2.0822
 1315SOL    HW2 3987   2.669   3.605   1.315 -1.8558 -0.4925  0.8846
 1316SOL     OW 3988   1.672   3.046   1.444 -0.0444 -0.2737 -0.0861
 1316SOL    HW1 3989   1.635   2.980   1.504 -2.6128  0.5291 -0.6746
 1316SOL    HW2 3990   1.658   3.009   1.357 -0.1417  0.3781 -0.3528
 1317SOL     OW 3991   3.713   3.521   1.354  0.0139 -0.3140  0.1539
 1317SOL    HW1 3992   3.668   3.463   1.293  1.4869 -0.4921 -0.8200
 1317SOL    HW2 3993   3.783   3.467   1.391  0.0856  0.2367  0.8384
 1318SOL     OW 3994   3.420   3.601   1.170 -0.4638 -0.3828  0.1054
 1318SOL    HW1 3995   3.455   3.525   1.215  1.7018 -0.1235 -1.0137
 1318SOL    HW2 3996   3.433   3.582   1.077  1.0782  1.7389 -0.1765
 1319SOL     OW 3997   1.942   3.202   0.977 -0.6953 -0.1198 -0.3226
 1319SOL    HW1 3998   2.022   3.186   1.027  0.5681  2.3052 -1.4006
 1319SOL    HW2 3999   1.884   3.249   1.038 -0.5962 -0.3302 -0.0669
 1320SOL     OW 4000   2.537   3.602   1.601 -0.5023  0.1802  0.5013
 1320SOL    HW1 4001   2.553   3.693   1.579  0.1747  0.6394  2.6449
 1320SOL    HW2 4002   2.449   3.601   1.638  0.1280  0.3260  2.0804
 1321SOL     OW 4003   3.013   3.296   0.554  0.0917 -0.5807  0.4033
 1321SOL    HW1 4004   2.931   3.251   0.574 -1.3992  1.2941 -1.0517
 1321SOL    HW2 4005   2.988   3.363   0.491  2.2145  1.9884  2.0873
 1322SOL     OW 4006   1.810   3.835   1.782 -0.5875  0.2221  0.2313
 1322SOL    HW1 4007   1.716   3.818   1.774 -0.6904  0.3024  1.1485
 1322SOL    HW2 4008   1.817   3.892   1.859  0.3343 -0.8578  0.9658
 1323SOL     OW 4009   3.033   2.836   0.648  0.3355 -0.0108 -0.4813
 1323SOL    HW1 4010   3.123   2.830   0.615  0.2028 -2.2658 -0.6047
 1323SOL    HW2 4011   3.024   2.760   0.706 -1.6467 -0.1455 -0.8899
 1324SOL     OW 4012   2.683   2.893   1.588  0.2651  0.6886  0.5086
 1324SOL    HW1 4013   2.759   2.883   1.645  1.8476 -0.5734 -1.6890
 1324SOL    HW2 4014   2.669   2.987   1.582  2.9446  1.0943 -0.5724
 1325SOL     OW 4015   3.807   2.023   1.281  0.7640  0.1314  0.0891
 1325SOL    HW1 4016   3.842   1.942   1.319 -0.0556 -0.7466 -0.9375
 1325SOL    HW2 4017   3.787   1.999   1.190 -2.2197  0.6241  0.5294
 1326SOL     OW 4018   1.742   2.373   1.126 -0.2477  0.1491 -0.2996
 1326SOL    HW1 4019   1.716   2.282   1.112  0.9633 -0.4143  0.8669
 1326SOL    HW2 4020   1.832   2.368   1.156  0.2493  1.8338 -1.3517
 1327SOL     OW 4021   2.566   2.759   1.356  0.1778  0.4160 -0.4102
 1327SOL    HW1 4022   2.509   2.689   1.389  0.9527 -0.3916 -0.7397
 1327SOL    HW2 4023   2.545   2.835   1.410  1.4239 -0.8365  2.0242
 1328SOL     OW 4024   1.826   2.923   1.668 -0.1622  0.6175 -0.0608
 1328SOL    HW1 4025   1.795   2.859   1.732  0.9060  0.0671 -0.0711
 1328SOL    HW2 4026   1.826   3.006   1.717 -3.4407  1.0867 -0.6005
 1329SOL     OW 4027   2.902   3.266   0.938 -0.2568  0.0638  0.2836
 1329SOL    HW1 4028   2.806   3.263   0.944 -0.3192  0.8103 -0.1788
 1329SOL    HW2 4029   2.922   3.217   0.858 -0.1038 -1.6730  1.3340
 1330SOL     OW 4030   2.927   1.590   1.456  0.1310 -0.0901 -0.5245
 1330SOL    HW1 4031   2.941   1.566   1.364 -0.4497  1.6242 -1.0919
 1330SOL    HW2 4032   2.845   1.547   1.480 -0.3062  0.3810 -1.1629
 1331SOL     OW 4033   2.293   3.253   0.612 -0.1989  0.1000 -0.1317
 1331SOL    HW1 4034   2.220   3.206   0.652 -0.1064  0.4201  0.4282
 1331SOL    HW2 4035   2.326   3.194   0.544 -0.7524 -0.1913 -0.1490
 1332SOL     OW 4036   4.032   2.185   1.405 -0.2607 -0.3920  0.7781
 1332SOL    HW1 4037   3.985   2.267   1.415  1.2154  0.6302 -0.2394
 1332SOL    HW2 4038   4.007   2.153   1.318  0.8609  0.1735  0.2151
 1333SOL     OW 4039   4.055   5.231   3.039  0.0827 -0.3467 -0.0724
 1333SOL    HW1 4040   4.051   5.165   3.109 -0.0281 -1.3255 -0.9863
 1333SOL    HW2 4041   4.053   5.315   3.086 -0.2898 -0.9766  1.0889
 1334SOL     OW 4042   1.967   2.605   1.739 -0.3410 -0.2606  0.1083
 1334SOL    HW1 4043   1.954   2.600   1.645 -0.6276  0.1966  0.1180
 1334SOL    HW2 4044   1.914   2.680   1.767  0.8150  0.4661  0.4279
 1335SOL     OW 4045   2.932   2.209   1.270 -0.3043 -0.1055 -0.1412
 1335SOL    HW1 4046   3.022   2.182   1.286 -0.6401 -0.7830  0.6367
 1335SOL    HW2 4047   2.891   2.213   1.356 -1.5239 -1.6159 -0.5965
 1336SOL     OW 4048   3.973   4.450   2.752 -0.3066  0.1256 -0.0308
 1336SOL    HW1 4049   3.974   4.402   2.670  1.2748  1.7780 -1.0256
 1336SOL    HW2 4050   3.958   4.383   2.819  2.4883 -1.8876 -1.2660
 1337SOL     OW 4051   3.417   2.221   0.826  0.2370 -0.0461  0.0623
 1337SOL    HW1 4052   3.447   2.150   0.770 -0.3184 -0.6462  0.5145
 1337SOL    HW2 4053   3.408   2.182   0.913 -2.1153  0.0024 -0.0936
 1338SOL     OW 4054   1.787   1.809   0.049  0.2041 -0.0384  0.3535
 1338SOL    HW1 4055   1.763   1.728   0.005 -0.9118 -0.3988  1.5818
 1338SOL    HW2 4056   1.878   1.796   0.075 -0.5612 -1.7829  2.3701
 1339SOL     OW 4057   2.391   2.900   1.593 -0.0341 -0.8302  0.2161
 1339SOL    HW1 4058   2.474   2.851   1.593  0.1504 -0.7178 -3.0629
 1339SOL    HW2 4059   2.396   2.955   1.515 -1.9436  1.5029  1.6289
 1340SOL     OW 4060   3.630   3.494   0.946 -0.0603 -0.1074  0.2677
 1340SOL    HW1 4061   3.725   3.498   0.935 -0.2250 -1.9107 -3.6979
 1340SOL    HW2 4062   3.615   3.413   0.993  0.3552 -0.2870  0.1000
 1341SOL     OW 4063   2.812   2.550   1.663 -0.0888  0.0543 -0.5808
 1341SOL    HW1 4064   2.884   2.496   1.694  0.7820 -0.1015 -2.6956
 1341SOL    HW2 4065   2.789   2.604   1.738  0.5627 -1.6250  0.8841
 1342SOL     OW 4066   3.307   3.086   1.486  0.0531 -0.2885  0.9420
 1342SOL    HW1 4067   3.250   3.138   1.543 -2.1020 -1.6429  0.1819
 1342SOL    HW2 4068   3.251   3.065   1.410  1.4918 -1.9309  0.2767
 1343SOL     OW 4069   2.163   3.501   1.923 -0.2561 -0.0894  0.0829
 1343SOL    HW1 4070   2.078   3.515   1.883 -1.1368 -2.4151  0.9552
 1343SOL    HW2 4071   2.154   3.419   1.972  2.1446  0.1758  1.1567
 1344SOL     OW 4072   3.470   2.581   0.932  0.3079 -0.4054 -0.2076
 1344SOL    HW1 4073   3.543   2.580   0.994  0.4012  0.6531 -0.2860
 1344SOL    HW2 4074   3.392   2.575   0.988  0.4330 -1.2514 -0.1080
 1345SOL     OW 4075   3.063   2.210   0.325 -0.0480  0.1898  0.0091
 1345SOL    HW1 4076   3.156   2.230   0.320 -0.2657  1.5123  0.9856
 1345SOL    HW2 4077   3.019   2.295   0.322 -1.2341 -0.4114 -0.4552
 1346SOL     OW 4078   2.333   2.567   0.827 -0.2340 -0.6060  0.0180
 1346SOL    HW1 4079   2.410   2.547   0.881 -0.6533 -2.3314  0.0376
 1346SOL    HW2 4080   2.340   2.506   0.753 -0.0556  1.2153 -1.5396
 1347SOL     OW 4081   4.092   1.833   1.630  0.4137  0.0011  0.6778
 1347SOL    HW1 4082   4.101   1.928   1.629 -0.4569  0.1087 -0.9312
 1347SOL    HW2 4083   3.998   1.818   1.621  0.7367 -0.9798 -1.6549
 1348SOL     OW 4084   2.585   3.614   0.879 -0.2842 -0.6388  0.1224
 1348SOL    HW1 4085   2.648   3.575   0.940 -0.1598 -0.6144  0.0105
 1348SOL    HW2 4086   2.569   3.545   0.815 -1.2559 -1.0588  0.7928
 1349SOL     OW 4087   2.545   2.469   0.948  0.1277 -0.0817 -0.0719
 1349SOL    HW1 4088   2.612   2.453   1.015  0.8885  1.1094 -0.5252
 1349SOL    HW2 4089   2.595   2.486   0.868 -0.7711 -2.5144 -1.2436
 1350SOL     OW 4090   2.865   2.874   0.432 -0.4371  0.5366  0.0660
 1350SOL    HW1 4091   2.799   2.933   0.469 -2.5337 -2.2649  1.1441
 1350SOL    HW2 4092   2.928   2.860   0.502 -0.4771  0.7262  0.1404
 1351SOL     OW 4093   3.951   2.896   0.930  0.1214  0.2025  0.3303
 1351SOL    HW1 4094   3.912   2.933   0.851 -2.9350 -0.0129  1.6174
 1351SOL    HW2 4095   3.985   2.811   0.903 -0.9572  0.0931 -0.7642
 1352SOL     OW 4096   2.206   3.210   2.006  0.2171 -0.2913  0.0839
 1352SOL    HW1 4097   2.284   3.163   1.978  0.4578 -0.9473  1.7142
 1352SOL    HW2 4098   2.145   3.142   2.032 -0.3703  0.2452  0.1376
 1353SOL     OW 4099   2.058   3.164   0.729 -0.2092  0.2645  0.3982
 1353SOL    HW1 4100   2.111   3.093   0.767  0.9688  0.5686 -0.6190
 1353SOL    HW2 4101   2.006   3.197   0.803 -0.3457 -1.2528  1.0166
 1354SOL     OW 4102   2.652   3.268   1.438 -0.2074 -0.2863 -0.0996
 1354SOL    HW1 4103   2.597   3.278   1.516  1.1373 -0.9487  0.9684
 1354SOL    HW2 4104   2.679   3.358   1.417 -0.6911 -0.0883  0.1016
 1355SOL     OW 4105   3.463   2.083   1.259 -0.0378  0.5410 -0.4811
 1355SOL    HW1 4106   3.483   2.023   1.331  1.3046  0.8297 -0.5825
 1355SOL    HW2 4107   3.498   2.039   1.181 -1.7075  0.1089 -1.0384
 1356SOL     OW 4108   2.028   1.862   0.442  0.0203  0.0503 -0.1203
 1356SOL    HW1 4109   2.017   1.905   0.527  1.0638  0.9192 -0.4034
 1356SOL    HW2 4110   2.079   1.783   0.461  0.9260  0.6511 -0.0425
 1357SOL     OW 4111   3.659   2.880   0.977  0.2415  0.2360 -0.0097
 1357SOL    HW1 4112   3.583   2.901   1.031 -0.4839  4.3677 -2.2464
 1357SOL    HW2 4113   3.734   2.908   1.030  0.3400 -2.9630  1.8050
 1358SOL     OW 4114   1.999   2.303   1.245  0.0067 -0.4118  0.0769
 1358SOL    HW1 4115   1.979   2.268   1.332 -2.6311 -0.0556 -0.3153
 1358SOL    HW2 4116   2.009   2.225   1.190 -0.4928 -0.6218  0.2762
 1359SOL     OW 4117   2.437   3.657   0.407  0.0159  0.0591 -1.1588
 1359SOL    HW1 4118   2.431   3.665   0.502 -0.2362 -0.8341 -1.0874
 1359SOL    HW2 4119   2.463   3.744   0.376 -3.6130  1.4867 -0.6073
 1360SOL     OW 4120   3.573   1.697   1.197 -0.2443 -0.2615  0.3217
 1360SOL    HW1 4121   3.584   1.773   1.141  0.0111 -1.0941 -0.7931
 1360SOL    HW2 4122   3.483   1.703   1.230 -0.2422  0.4775  0.1914
 1361SOL     OW 4123   3.262   1.698   1.264  0.8899  0.4024 -0.1306
 1361SOL    HW1 4124   3.241   1.635   1.333  1.9878 -0.6906 -0.7547
 1361SOL    HW2 4125   3.195   1.766   1.273  0.0473 -0.5250  0.9694
 1362SOL     OW 4126   2.613   3.297   0.066  0.3975  0.0584 -0.3676
 1362SOL    HW1 4127   2.632   3.230   0.133 -0.5361 -0.4545 -0.5934
 1362SOL    HW2 4128   2.606   3.248  -0.015 -0.1396  0.4500 -0.5635
 1363SOL     OW 4129   2.389   3.633   1.117 -0.5321  0.2169  0.8438
 1363SOL    HW1 4130   2.320   3.699   1.122 -0.4051  0.3597  0.7356
 1363SOL    HW2 4131   2.452   3.669   1.055 -0.9827 -0.4932 -0.0601
 1364SOL     OW 4132   3.044   2.476   0.266  0.4556  0.0483 -0.5905
 1364SOL    HW1 4133   2.971   2.539   0.273  0.5191 -0.0267  1.4744
 1364SOL    HW2 4134   3.098   2.494   0.343  0.9107 -2.0087 -0.3709
 1365SOL     OW 4135   3.597   2.030   0.771  0.2484  0.6925 -0.4472
 1365SOL    HW1 4136   3.612   1.937   0.755  0.3488  0.1999  2.0123
 1365SOL    HW2 4137   3.674   2.074   0.735  1.8441 -0.5612  1.2289
 1366SOL     OW 4138   1.899   2.965   0.564 -0.4516 -0.2785  0.1204
 1366SOL    HW1 4139   1.949   2.885   0.556  0.8545  0.5240 -0.0113
 1366SOL    HW2 4140   1.954   3.023   0.617 -0.3923  1.2644 -1.5358
 1367SOL     OW 4141   1.914   2.401   1.941  0.1034 -0.0309 -1.1032
 1367SOL    HW1 4142   1.847   2.355   1.891 -0.5392  1.1309 -1.3333
 1367SOL    HW2 4143   1.939   2.475   1.887 -1.0067  1.5766  0.4781
 1368SOL     OW 4144   6.251   2.354   2.969  0.3385 -0.0867  0.5649
 1368SOL    HW1 4145   6.276   2.291   3.037  2.6593 -1.3353 -1.2907
 1368SOL    HW2 4146   6.157   2.340   2.957  0.3407 -1.4905  1.8675
 1369SOL     OW 4147   2.003   2.204   2.362  0.1072  0.2429  0.4569
 1369SOL    HW1 4148   2.062   2.189   2.288 -0.0684  1.6240  0.0009
 1369SOL    HW2 4149   2.012   2.298   2.380 -0.4792  0.0775  1.6506
 1370SOL     OW 4150   2.608   3.426   3.014  0.5384  0.6589  0.3233
 1370SOL    HW1 4151   2.588   3.516   2.988 -0.5010  0.8327  1.6026
 1370SOL    HW2 4152   2.652   3.436   3.099  1.8620  0.0176 -0.2583
 1371SOL     OW 4153   3.394   3.142   2.673  0.3032  0.5661  0.3454
 1371SOL    HW1 4154   3.334   3.159   2.600  0.8214  0.9785  0.0075
 1371SOL    HW2 4155   3.427   3.054   2.656 -0.5053  0.1706  0.7546
 1372SOL     OW 4156   3.177   2.706   2.611 -0.1293  0.8008 -0.5718
 1372SOL    HW1 4157   3.241   2.639   2.636  0.1854  0.8262 -1.2960
 1372SOL    HW2 4158   3.093   2.660   2.613 -0.1977  0.9180  0.9898
 1373SOL     OW 4159   3.731   2.195   1.533  0.3523  0.0297 -0.6457
 1373SOL    HW1 4160   3.726   2.100   1.526 -0.8777  0.1222 -1.4555
 1373SOL    HW2 4161   3.774   2.211   1.617  0.1075 -1.2336 -0.2586
 1374SOL     OW 4162   0.662   1.013   0.184 -0.7336 -0.1704  0.3812
 1374SOL    HW1 4163   0.715   0.948   0.230 -0.4660  0.3421  0.8074
 1374SOL    HW2 4164   0.572   0.981   0.194 -0.7426  0.2510  1.8131
 1375SOL     OW 4165   2.606   2.820   2.714  0.1349 -0.5948 -0.0648
 1375SOL    HW1 4166   2.562   2.808   2.798 -0.6948  2.3756  0.0279
 1375SOL    HW2 4167   2.699   2.822   2.737 -0.0448 -0.4498  0.6893
 1376SOL     OW 4168   2.225   3.439   2.818 -0.5896 -0.3646  0.3886
 1376SOL    HW1 4169   2.231   3.405   2.908 -0.4913 -1.6827 -0.0960
 1376SOL    HW2 4170   2.193   3.529   2.829 -0.3629 -0.4222  1.7532
 1377SOL     OW 4171   3.415   2.872   2.602 -0.0931 -0.6069 -0.0412
 1377SOL    HW1 4172   3.481   2.817   2.644  0.7614  0.1791 -0.3064
 1377SOL    HW2 4173   3.333   2.824   2.612  0.1164 -0.5726  2.3005
 1378SOL     OW 4174   2.116   3.523   2.323  0.2340 -0.2933 -0.0599
 1378SOL    HW1 4175   2.077   3.574   2.394 -0.8314 -1.0327 -0.0953
 1378SOL    HW2 4176   2.100   3.575   2.244  0.4577  0.0055  0.0863
 1379SOL     OW 4177   2.071   3.187   2.323 -0.3332  0.2991  0.0999
 1379SOL    HW1 4178   2.157   3.228   2.321 -0.1206 -0.1458 -1.6296
 1379SOL    HW2 4179   2.011   3.257   2.295 -0.0958 -0.2082 -1.8425
 1380SOL     OW 4180   2.423   3.052   2.832  0.3186  0.0934 -0.5009
 1380SOL    HW1 4181   2.423   2.963   2.867 -1.7371  0.4061  0.4431
 1380SOL    HW2 4182   2.511   3.086   2.851  0.4790 -1.0438  0.9524
 1381SOL     OW 4183   2.508   2.884   1.896 -0.1160  0.0856  0.2769
 1381SOL    HW1 4184   2.493   2.886   1.991 -0.9170 -0.8658  0.1784
 1381SOL    HW2 4185   2.446   2.947   1.860 -0.7971 -0.5712  0.2735
 1382SOL     OW 4186   1.494   0.120   0.146 -0.5912 -0.2401  0.1611
 1382SOL    HW1 4187   1.525   0.064   0.217 -0.0178  0.9866  0.9173
 1382SOL    HW2 4188   1.571   0.172   0.122 -1.0978  0.1971 -0.5295
 1383SOL     OW 4189   6.286   2.635   2.885 -0.3770  0.3624  0.3415
 1383SOL    HW1 4190   6.300   2.548   2.924  0.7006  1.0136  1.4582
 1383SOL    HW2 4191   6.201   2.627   2.841 -0.3852 -1.2057  0.5616
 1384SOL     OW 4192   4.093   3.743   2.222 -0.0778  0.2175  0.4064
 1384SOL    HW1 4193   4.163   3.702   2.273 -0.4117 -0.9711 -0.0616
 1384SOL    HW2 4194   4.013   3.725   2.272 -0.1920  0.6094  0.3695
 1385SOL     OW 4195   1.777   3.406   1.972 -0.2042 -0.6147  0.2442
 1385SOL    HW1 4196   1.705   3.344   1.982 -1.7594  1.1305  0.5470
 1385SOL    HW2 4197   1.799   3.432   2.061  1.4717 -1.7802  0.2190
 1386SOL     OW 4198   3.617   2.694   2.607 -0.1810  0.0518 -0.0551
 1386SOL    HW1 4199   3.709   2.710   2.583 -0.1412 -0.2390 -0.1001
 1386SOL    HW2 4200   3.574   2.676   2.523 -0.4936  1.1994 -0.1632
 1387SOL     OW 4201   3.635   2.940   2.276 -0.3411 -0.9683  0.2166
 1387SOL    HW1 4202   3.604   2.861   2.232  1.0888 -1.1807 -0.4827
 1387SOL    HW2 4203   3.634   3.007   2.208 -1.1763 -0.4697  0.7091
 1388SOL     OW 4204   2.506   3.593   2.302 -0.4298 -0.0030 -0.4807
 1388SOL    HW1 4205   2.443   3.526   2.331  0.0092  0.2020  1.0144
 1388SOL    HW2 4206   2.545   3.556   2.223  0.2942 -1.8667  0.6779
 1389SOL     OW 4207   2.689   1.848   2.490  0.2434 -0.0079 -0.3208
 1389SOL    HW1 4208   2.601   1.883   2.507  0.4955 -0.0994  1.3410
 1389SOL    HW2 4209   2.693   1.767   2.541  1.7982  0.7845  0.8979
 1390SOL     OW 4210   4.379   0.947   0.354  0.0572 -0.0095  0.4214
 1390SOL    HW1 4211   4.363   0.880   0.419 -0.0924 -0.7529 -0.3606
 1390SOL    HW2 4212   4.421   0.901   0.281  3.2497  1.3610  1.2259
 1391SOL     OW 4213   3.529   2.757   2.076  0.5154  0.4812 -0.0173
 1391SOL    HW1 4214   3.492   2.842   2.052 -1.0595  0.2859  1.4986
 1391SOL    HW2 4215   3.467   2.693   2.040  0.5003  0.0579  0.7374
 1392SOL     OW 4216   3.225   3.638   2.802 -0.1730 -0.4590  0.2934
 1392SOL    HW1 4217   3.204   3.668   2.891 -1.4901  1.0635 -0.4637
 1392SOL    HW2 4218   3.242   3.545   2.811  0.9279 -0.1198  2.3243
 1393SOL     OW 4219   3.701   3.376   2.148  0.3632 -0.0195 -0.2001
 1393SOL    HW1 4220   3.778   3.426   2.173 -0.0256  0.8315 -0.6997
 1393SOL    HW2 4221   3.641   3.385   2.223  0.4264 -0.0231 -0.1487
 1394SOL     OW 4222   2.327   2.572   2.294  0.6386 -0.0797  0.0162
 1394SOL    HW1 4223   2.325   2.603   2.204  0.2426 -0.2364 -0.0305
 1394SOL    HW2 4224   2.292   2.483   2.290  1.1676 -0.3031  0.2415
 1395SOL     OW 4225   3.335   2.467   2.635  0.5132 -0.0050 -0.2805
 1395SOL    HW1 4226   3.286   2.386   2.642 -1.8716  1.4410  1.4862
 1395SOL    HW2 4227   3.406   2.458   2.698  1.2256 -1.2640 -1.2208
 1396SOL     OW 4228   3.693   3.859   2.136  0.1399 -0.0808  0.3645
 1396SOL    HW1 4229   3.720   3.866   2.045  0.4044 -0.0791  0.4402
 1396SOL    HW2 4230   3.612   3.809   2.134  0.7504 -1.0944  0.2164
 1397SOL     OW 4231   2.716   2.581   2.603 -0.3093  0.4949 -0.2186
 1397SOL    HW1 4232   2.653   2.649   2.630  1.5416  2.2703 -0.1404
 1397SOL    HW2 4233   2.715   2.585   2.508 -0.5267  0.2939 -0.2270
 1398SOL     OW 4234   2.175   3.077   2.991  0.0966  0.1586  0.2281
 1398SOL    HW1 4235   2.258   3.069   2.943  0.0422 -0.6378  0.2431
 1398SOL    HW2 4236   2.107   3.060   2.926 -0.0270  0.2603  0.3297
 1399SOL     OW 4237   2.518   2.345   2.150  0.6943  0.3283  0.2325
 1399SOL    HW1 4238   2.563   2.429   2.141  1.1562  0.1269  0.6621
 1399SOL    HW2 4239   2.565   2.287   2.091  0.6853  0.2372  0.3168
 1400SOL     OW 4240   3.354   3.178   1.805  0.3347 -0.6938 -0.8224
 1400SOL    HW1 4241   3.423   3.177   1.739  0.0831  1.4804 -1.1924
 1400SOL    HW2 4242   3.278   3.216   1.760 -0.1441 -0.0920  0.4331
 1401SOL     OW 4243   2.397   5.901   2.617  0.0754 -0.5940  0.1638
 1401SOL    HW1 4244   2.327   5.948   2.571  2.2071  2.7189 -0.0376
 1401SOL    HW2 4245   2.402   5.944   2.702  0.2553 -2.5114  1.1685
 1402SOL     OW 4246   2.895   2.955   2.040 -0.0807 -0.4397 -0.3512
 1402SOL    HW1 4247   2.841   2.988   1.968  1.2563  1.3314 -0.6276
 1402SOL    HW2 4248   2.899   3.028   2.102  2.1814 -0.3664 -0.4904
 1403SOL     OW 4249   2.195   3.708   2.856 -0.1980  0.1633  0.2155
 1403SOL    HW1 4250   2.253   3.757   2.914  0.0892 -0.1986  0.2402
 1403SOL    HW2 4251   2.214   3.740   2.768 -0.4564  0.5361  0.2923
 1404SOL     OW 4252   3.286   3.054   2.915 -0.3300 -0.0862 -0.2480
 1404SOL    HW1 4253   3.290   2.959   2.910  0.2668 -0.0154 -1.8402
 1404SOL    HW2 4254   3.331   3.084   2.836 -2.2199  1.4964 -0.8154
 1405SOL     OW 4255   2.383   2.646   2.025 -0.5722 -0.2102  0.0834
 1405SOL    HW1 4256   2.471   2.683   2.017 -0.1830 -0.4714  2.3629
 1405SOL    HW2 4257   2.328   2.700   1.968  1.0093  0.0840 -1.2303
 1406SOL     OW 4258   3.212   2.806   2.949 -0.0539  0.0708  0.4986
 1406SOL    HW1 4259   3.180   2.747   3.018  0.3349 -0.1504  0.4949
 1406SOL    HW2 4260   3.133   2.832   2.902 -0.1854 -0.8863  0.1536
 1407SOL     OW 4261   3.080   3.520   2.124 -0.1432 -0.0753 -0.2292
 1407SOL    HW1 4262   2.992   3.551   2.103 -0.2969  0.0609  0.5997
 1407SOL    HW2 4263   3.072   3.425   2.129 -0.4225 -0.0101  0.6431
 1408SOL     OW 4264   3.512   3.358   1.268 -0.6961  0.0451 -0.4835
 1408SOL    HW1 4265   3.427   3.326   1.237  0.0837 -0.3302 -2.3688
 1408SOL    HW2 4266   3.543   3.290   1.329 -1.1497 -0.4819 -0.8354
 1409SOL     OW 4267   2.498   3.840   2.203 -0.1286 -0.0664  0.1765
 1409SOL    HW1 4268   2.537   3.909   2.256 -0.4547 -0.0307  0.3709
 1409SOL    HW2 4269   2.505   3.761   2.256 -0.6427  0.0095  0.3612
 1410SOL     OW 4270   3.435   2.402   2.377 -0.3362  0.0107  0.0406
 1410SOL    HW1 4271   3.360   2.424   2.433 -0.4621 -1.0965  0.3273
 1410SOL    HW2 4272   3.479   2.330   2.423  0.5212  0.1895 -0.4661
 1411SOL     OW 4273   3.125   3.548   2.393 -0.3599 -0.8000  0.0411
 1411SOL    HW1 4274   3.157   3.457   2.387  2.3755  0.1344 -1.3408
 1411SOL    HW2 4275   3.079   3.562   2.311  2.0299 -0.0801 -1.2823
 1412SOL     OW 4276   1.972   2.468   2.516  0.1788  0.2118 -0.0734
 1412SOL    HW1 4277   2.047   2.445   2.570  0.3850  2.1053  0.5262
 1412SOL    HW2 4278   1.988   2.559   2.490 -1.1161  0.1298 -1.2923
 1413SOL     OW 4279   2.355   1.992   2.108  0.7281  1.0088 -0.6218
 1413SOL    HW1 4280   2.410   1.919   2.079  0.5483  0.9163 -0.7285
 1413SOL    HW2 4281   2.318   2.027   2.027  2.4261  2.5283 -0.8155
 1414SOL     OW 4282   0.994   0.227   0.175 -0.1693  0.3821  0.1165
 1414SOL    HW1 4283   0.944   0.161   0.129 -0.3511  1.1297 -0.7973
 1414SOL    HW2 4284   0.982   0.206   0.268  1.0212 -1.7516 -0.1479
 1415SOL     OW 4285   2.734   3.229   2.621 -0.0220 -0.0678  0.1630
 1415SOL    HW1 4286   2.675   3.251   2.550  0.3095  2.1404  0.5275
 1415SOL    HW2 4287   2.789   3.159   2.586 -0.7935 -0.0020 -1.2336
 1416SOL     OW 4288   2.514   2.436   2.869 -0.5577 -0.1129  0.0780
 1416SOL    HW1 4289   2.506   2.467   2.959  1.1499  0.7142  0.0022
 1416SOL    HW2 4290   2.460   2.497   2.818 -0.4789  0.2349  0.4055
 1417SOL     OW 4291   2.238   1.738   2.475 -0.6259  0.0426  0.3237
 1417SOL    HW1 4292   2.297   1.796   2.522 -0.9779  0.3751  0.3530
 1417SOL    HW2 4293   2.151   1.757   2.510 -0.7652 -0.3788  0.2145
 1418SOL     OW 4294   3.424   3.025   2.008  0.4031  0.0434  0.2018
 1418SOL    HW1 4295   3.515   3.054   2.017  0.3054  0.5534 -0.4376
 1418SOL    HW2 4296   3.387   3.081   1.940 -1.3311  2.0251  2.6355
 1419SOL     OW 4297   2.340   1.886   1.766 -0.0116 -0.0467 -0.3309
 1419SOL    HW1 4298   2.282   1.959   1.788  1.9143  1.7155 -0.7931
 1419SOL    HW2 4299   2.314   1.816   1.826 -0.6968  1.6423  1.4552
 1420SOL     OW 4300   2.643   2.327   2.501 -0.1158  0.4538 -0.3785
 1420SOL    HW1 4301   2.586   2.367   2.435  2.4353 -0.2836 -3.2548
 1420SOL    HW2 4302   2.680   2.401   2.549 -0.7393  1.1260 -0.9077
 1421SOL     OW 4303   3.290   3.678   2.550 -0.4208  0.3270  0.4066
 1421SOL    HW1 4304   3.222   3.638   2.495 -0.8900 -0.3850  1.4703
 1421SOL    HW2 4305   3.255   3.673   2.639  1.0001  0.0280  0.9671
 1422SOL     OW 4306   2.311   3.365   2.380 -0.2208 -0.4558 -0.0814
 1422SOL    HW1 4307   2.305   3.348   2.474  2.3518  2.3542  0.7307
 1422SOL    HW2 4308   2.235   3.420   2.361  1.1638  2.0931  1.2918
 1423SOL     OW 4309   2.944   4.274   2.486 -0.2379  0.0759  0.5585
 1423SOL    HW1 4310   2.889   4.351   2.474 -0.7629 -0.2982  0.5141
 1423SOL    HW2 4311   2.882   4.201   2.495  0.2640 -0.4782 -0.3763
 1424SOL     OW 4312   2.677   2.583   2.075 -0.4800  0.1032  0.2899
 1424SOL    HW1 4313   2.707   2.653   2.017 -0.2932 -0.0563  0.1966
 1424SOL    HW2 4314   2.736   2.510   2.058 -0.7888 -0.1410  0.2552
 1425SOL     OW 4315   3.742   0.233   0.229 -0.8097  0.1727  0.2067
 1425SOL    HW1 4316   3.825   0.187   0.232 -1.5835 -1.2956  0.0816
 1425SOL    HW2 4317   3.725   0.257   0.321 -0.2713  0.4701  0.2328
 1426SOL     OW 4318   0.168   3.817   0.060  0.3787 -0.4616 -0.0405
 1426SOL    HW1 4319   0.085   3.850   0.094  1.1947  0.1384  1.5073
 1426SOL    HW2 4320   0.232   3.838   0.129  1.5153 -2.4688 -0.3886
 1427SOL     OW 4321   2.431   1.939   2.565 -0.4636 -0.7937 -0.1263
 1427SOL    HW1 4322   2.394   1.984   2.489  1.4329  1.3076  0.0931
 1427SOL    HW2 4323   2.454   2.009   2.626  0.7813 -2.2021  1.1062
 1428SOL     OW 4324   2.887   2.009   2.578  0.3558 -0.2701 -0.1225
 1428SOL    HW1 4325   2.807   1.991   2.528  0.3795 -0.5413 -0.0648
 1428SOL    HW2 4326   2.878   1.954   2.656 -1.0987  2.2834  1.6610
 1429SOL     OW 4327   3.157   3.256   2.317  0.2491  0.4852  0.0024
 1429SOL    HW1 4328   3.221   3.273   2.248  1.2850 -0.2090  0.7742
 1429SOL    HW2 4329   3.089   3.204   2.274  0.8317  0.1386 -0.5182
 1430SOL     OW 4330   2.941   2.537   2.773 -0.6606 -0.2823 -0.2937
 1430SOL    HW1 4331   2.951   2.450   2.733  0.1581  0.7120 -2.4023
 1430SOL    HW2 4332   2.862   2.572   2.733 -1.5474 -0.3909  1.2916
 1431SOL     OW 4333   3.734   2.428   2.018 -0.4098 -0.1513  0.2067
 1431SOL    HW1 4334   3.651   2.391   2.047  0.0966 -1.2528  0.3090
 1431SOL    HW2 4335   3.733   2.418   1.923 -1.2643  1.7456 -0.0272
 1432SOL     OW 4336   2.472   2.970   2.147  0.0254 -0.3410  0.2558
 1432SOL    HW1 4337   2.382   2.983   2.178 -0.6002 -2.9376 -0.2065
 1432SOL    HW2 4338   2.521   2.945   2.225 -0.4968 -2.2645  0.0345
 1433SOL     OW 4339   3.932   3.200   2.240 -0.2635 -0.5427 -0.4799
 1433SOL    HW1 4340   3.904   3.283   2.202 -0.7801 -1.3377 -1.9079
 1433SOL    HW2 4341   4.017   3.219   2.278 -1.2993  1.1551  1.1474
 1434SOL     OW 4342   3.058   2.431   1.743 -0.0222  0.3136  0.3587
 1434SOL    HW1 4343   3.054   2.479   1.826 -1.9726  0.3206  0.3106
 1434SOL    HW2 4344   3.120   2.361   1.758  0.1495  0.7152  1.6138
 1435SOL     OW 4345   2.295   2.062   2.336  0.1730 -0.3275 -0.3551
 1435SOL    HW1 4346   2.329   2.013   2.262  3.1371 -1.3901  1.5514
 1435SOL    HW2 4347   2.292   2.153   2.305  1.7002 -0.6779 -1.6677
 1436SOL     OW 4348   2.882   3.027   2.976 -0.3901 -0.2843  0.5434
 1436SOL    HW1 4349   2.896   3.022   3.071  1.8868  0.4944  0.3154
 1436SOL    HW2 4350   2.796   3.068   2.967  0.4846  2.2264  2.3564
 1437SOL     OW 4351   2.566   2.942   2.488 -0.7944 -0.3936 -0.1678
 1437SOL    HW1 4352   2.472   2.962   2.483 -0.8218  0.0068  1.4940
 1437SOL    HW2 4353   2.578   2.903   2.574  0.6517  0.0491 -0.1429
 1438SOL     OW 4354   2.309   2.970   2.460 -0.9009  0.2561 -0.5149
 1438SOL    HW1 4355   2.249   2.963   2.386 -1.6384  1.6949 -0.0978
 1438SOL    HW2 4356   2.272   3.040   2.514  1.3653  1.4925 -0.4471
 1439SOL     OW 4357   2.446   6.053   2.877  0.0852 -0.3648  0.2172
 1439SOL    HW1 4358   2.491   6.134   2.904  0.6975 -0.1530 -1.3305
 1439SOL    HW2 4359   2.387   6.033   2.950 -0.7493  1.9808  0.2812
 1440SOL     OW 4360   3.511   3.549   2.413 -0.4507  0.2893 -0.6385
 1440SOL    HW1 4361   3.605   3.534   2.427 -0.5360  1.0317  0.9034
 1440SOL    HW2 4362   3.479   3.581   2.497 -2.1985 -0.4212 -0.9848
 1441SOL     OW 4363   3.283   2.352   2.126  0.1436 -0.1798 -0.2767
 1441SOL    HW1 4364   3.316   2.358   2.215 -1.4878  0.1053  0.3444
 1441SOL    HW2 4365   3.236   2.435   2.112 -0.9354 -0.8626 -0.8196
 1442SOL     OW 4366   2.832   2.570   3.022 -0.2097  1.3698  0.4091
 1442SOL    HW1 4367   2.787   2.486   3.016  2.1606  0.0068  0.2534
 1442SOL    HW2 4368   2.898   2.567   2.953 -0.4534  3.6647 -0.0108
 1443SOL     OW 4369   3.086   2.528   1.990  0.3934 -0.5203  0.2147
 1443SOL    HW1 4370   3.043   2.450   2.025 -0.4888 -1.4543 -2.6650
 1443SOL    HW2 4371   3.043   2.601   2.034 -1.3149 -1.5854  0.3964
 1444SOL     OW 4372   2.651   3.164   2.891 -0.3507  0.0889 -0.4339
 1444SOL    HW1 4373   2.677   3.190   2.803 -1.2242  0.7305 -0.5161
 1444SOL    HW2 4374   2.628   3.247   2.934 -0.6411 -0.2950  0.1640
 1445SOL     OW 4375   2.515   2.194   2.719 -0.2931  0.2933 -0.3851
 1445SOL    HW1 4376   2.549   2.222   2.634 -0.7813  1.5727 -0.1863
 1445SOL    HW2 4377   2.526   2.271   2.776  0.5893 -0.7281  0.8827
 1446SOL     OW 4378   1.949   6.041   2.538 -0.0878  1.0092 -0.7458
 1446SOL    HW1 4379   1.975   6.009   2.625  0.1120  0.1430 -1.1191
 1446SOL    HW2 4380   1.909   5.965   2.496 -2.1742  1.9692 -0.6353
 1447SOL     OW 4381   3.538   2.237   2.087  0.2097 -0.2605 -0.0687
 1447SOL    HW1 4382   3.564   2.247   2.179 -1.0344 -0.1311  0.2866
 1447SOL    HW2 4383   3.447   2.267   2.085  0.3984  0.2767 -1.4584
 1448SOL     OW 4384   2.698   2.277   3.031 -0.2295  0.1297 -0.6792
 1448SOL    HW1 4385   2.661   2.282   3.119 -1.0225  2.0124 -1.0687
 1448SOL    HW2 4386   2.622   2.266   2.973  0.1872 -0.1183 -1.1903
 1449SOL     OW 4387   3.490   2.160   1.838  0.0603  0.5307 -0.6562
 1449SOL    HW1 4388   3.461   2.077   1.874  0.5828  0.3379 -0.6742
 1449SOL    HW2 4389   3.548   2.197   1.905 -0.6486  1.1710 -0.3807
 1450SOL     OW 4390   3.397   2.497   1.694 -0.2674 -0.2591 -0.2244
 1450SOL    HW1 4391   3.414   2.421   1.750  0.5703 -1.3491 -1.8893
 1450SOL    HW2 4392   3.456   2.487   1.620 -1.2028  1.2362 -1.2457
 1451SOL     OW 4393   3.131   3.108   2.550 -0.2124 -0.2293 -0.1492
 1451SOL    HW1 4394   3.165   3.024   2.520 -2.5050 -0.7529 -1.5090
 1451SOL    HW2 4395   3.139   3.166   2.474 -2.2627 -0.3812 -0.5321
 1452SOL     OW 4396   2.460   2.782   2.924  0.0731 -0.0635  0.3607
 1452SOL    HW1 4397   2.472   2.737   3.007  0.5305 -0.2546  0.1948
 1452SOL    HW2 4398   2.379   2.745   2.888  0.6703 -1.0925  0.0183
 1453SOL     OW 4399   2.239   2.624   2.837  0.1713  0.4014 -0.3569
 1453SOL    HW1 4400   2.150   2.659   2.830  0.1332  0.1084 -1.4716
 1453SOL    HW2 4401   2.264   2.605   2.747  1.6481  1.1582 -0.1289
 1454SOL     OW 4402   1.910   3.045   1.972 -0.1110 -0.2712  0.4906
 1454SOL    HW1 4403   1.880   3.040   2.063 -1.5917 -2.8371 -0.0433
 1454SOL    HW2 4404   1.964   2.967   1.961  1.0603  0.6581 -0.5337
 1455SOL     OW 4405   1.802   3.564   2.577 -0.2419  0.0711  0.0698
 1455SOL    HW1 4406   1.712   3.586   2.601  0.0744  1.1075  0.3558
 1455SOL    HW2 4407   1.838   3.645   2.541  0.4326 -0.4680 -0.5050
 1456SOL     OW 4408   2.277   3.208   2.650 -0.3989  0.1845  0.0531
 1456SOL    HW1 4409   2.342   3.170   2.708 -1.6354  0.4102  1.6654
 1456SOL    HW2 4410   2.236   3.277   2.702  0.0790  2.0813 -1.9347
 1457SOL     OW 4411   0.528   0.508   0.225 -0.0152 -0.5982 -0.2952
 1457SOL    HW1 4412   0.558   0.472   0.142 -2.0556 -1.6988 -0.6209
 1457SOL    HW2 4413   0.433   0.494   0.224 -0.2946  0.8112  1.5336
 1458SOL     OW 4414   4.193   0.535   0.104 -0.0510 -0.2868  0.1427
 1458SOL    HW1 4415   4.177   0.521   0.011  2.6208  1.3681 -0.6986
 1458SOL    HW2 4416   4.263   0.475   0.126 -0.8778 -0.8916  1.2190
 1459SOL     OW 4417   2.643   2.575   2.340  0.0015 -0.2498  0.5659
 1459SOL    HW1 4418   2.667   2.576   2.247 -0.1570 -0.0328  0.5251
 1459SOL    HW2 4419   2.550   2.598   2.340  0.3128  1.0848  0.8620
 1460SOL     OW 4420   3.538   2.566   2.852  0.5400  0.2136 -0.0389
 1460SOL    HW1 4421   3.565   2.647   2.809  0.2571  0.8034  0.8660
 1460SOL    HW2 4422   3.574   2.496   2.796  0.3674  0.9423 -1.0988
 1461SOL     OW 4423   2.251   2.284   2.213  0.3479  0.0450 -0.0488
 1461SOL    HW1 4424   2.344   2.292   2.192  0.5181  0.8472  0.9548
 1461SOL    HW2 4425   2.210   2.258   2.130  1.5490 -1.0689 -0.3310
 1462SOL     OW 4426   3.741   0.936   0.425  0.1880  0.2505 -0.8153
 1462SOL    HW1 4427   3.679   0.919   0.354  0.3453 -0.0218 -0.8887
 1462SOL    HW2 4428   3.812   0.873   0.410 -0.4071 -0.7240  0.3693
 1463SOL     OW 4429   3.234   3.304   2.061 -0.1345 -0.3915  0.0307
 1463SOL    HW1 4430   3.257   3.379   2.006 -0.4462 -1.1444 -1.1519
 1463SOL    HW2 4431   3.299   3.238   2.040  1.1623  0.0563  2.2834
 1464SOL     OW 4432   3.460   3.817   2.768 -0.0236  0.3229 -0.2083
 1464SOL    HW1 4433   3.487   3.820   2.676  0.7771  0.6406  0.0216
 1464SOL    HW2 4434   3.398   3.744   2.773  1.5059 -1.0691 -0.6107
 1465SOL     OW 4435   4.038   0.845   0.146 -0.5099  0.1483 -0.0330
 1465SOL    HW1 4436   4.037   0.812   0.236  0.7709  0.6375  0.1868
 1465SOL    HW2 4437   4.097   0.785   0.099 -1.7086 -0.5223 -0.7381
 1466SOL     OW 4438   3.851   2.340   2.262  0.1062  0.4417  0.4006
 1466SOL    HW1 4439   3.850   2.366   2.170  0.3394 -0.2334  0.1957
 1466SOL    HW2 4440   3.772   2.288   2.274 -0.0051  0.6581  0.6241
 1467SOL     OW 4441   3.667   3.719   2.572  0.2916  0.2596 -0.1661
 1467SOL    HW1 4442   3.665   3.633   2.615 -0.8924 -0.0693 -0.8482
 1467SOL    HW2 4443   3.754   3.723   2.531  1.6427  0.7702  2.5380
 1468SOL     OW 4444   3.359   2.969   2.313 -0.6175  0.0866 -0.0939
 1468SOL    HW1 4445   3.412   2.936   2.385 -2.0381  2.6453  2.2920
 1468SOL    HW2 4446   3.421   2.983   2.241  0.5613 -4.3433 -0.2410
 1469SOL     OW 4447   2.593   3.761   1.956 -0.2828 -0.0706 -0.5490
 1469SOL    HW1 4448   2.528   3.813   1.908  2.0866  0.5425 -3.4082
 1469SOL    HW2 4449   2.573   3.776   2.048 -2.8525  1.7627 -1.3083
 1470SOL     OW 4450   3.510   6.243   2.689 -0.0658  0.4292  0.6160
 1470SOL    HW1 4451   3.462   6.280   2.763 -0.3460 -0.7256  1.0184
 1470SOL    HW2 4452   3.576   6.186   2.729  2.0499  2.3382  0.1153
 1471SOL     OW 4453   2.194   2.007   2.785  0.0567  0.0482  0.2107
 1471SOL    HW1 4454   2.265   1.967   2.735 -0.0545  0.3893 -0.2268
 1471SOL    HW2 4455   2.191   1.957   2.867 -0.7418 -1.4972 -0.7219
 1472SOL     OW 4456   3.114   2.875   2.371  0.7342 -0.0363  0.1104
 1472SOL    HW1 4457   3.201   2.912   2.353  1.1956 -0.7871  0.7157
 1472SOL    HW2 4458   3.126   2.823   2.451 -0.6395  1.1168  1.1237
 1473SOL     OW 4459   3.497   3.713   2.009  0.3938 -0.4850 -1.1182
 1473SOL    HW1 4460   3.441   3.650   2.053  0.2027  0.7518  0.5140
 1473SOL    HW2 4461   3.437   3.762   1.952  0.2538 -0.7372 -1.1893
 1474SOL     OW 4462   2.835   3.014   2.495 -0.0297  0.5578  0.1622
 1474SOL    HW1 4463   2.771   2.944   2.505  1.5431 -0.9967 -0.2271
 1474SOL    HW2 4464   2.919   2.971   2.504  1.0047  2.3629 -0.4059
 1475SOL     OW 4465   2.975   2.263   2.659 -0.8757  0.2879 -0.2822
 1475SOL    HW1 4466   2.933   2.193   2.609 -0.1057  0.3093 -0.9881
 1475SOL    HW2 4467   2.993   2.224   2.744 -1.4992  0.0012 -0.2718
 1476SOL     OW 4468   2.584   3.214   1.946 -0.0973 -0.6549  0.1611
 1476SOL    HW1 4469   2.564   3.137   1.998 -2.4644 -0.2138  0.0241
 1476SOL    HW2 4470   2.508   3.225   1.889  0.6450  1.1750 -0.5573
 1477SOL     OW 4471   2.205   2.981   2.187 -0.0210 -0.2195  0.3698
 1477SOL    HW1 4472   2.170   2.895   2.166 -0.3663 -0.3583  1.4404
 1477SOL    HW2 4473   2.135   3.024   2.235 -0.8233  1.6325 -2.2317
 1478SOL     OW 4474   2.043   2.150   2.053  0.1992 -0.0321  0.3773
 1478SOL    HW1 4475   1.977   2.083   2.039  1.3783 -1.2526  0.4128
 1478SOL    HW2 4476   2.002   2.231   2.022 -1.4742 -0.6381  0.8927
 1479SOL     OW 4477   1.807   1.734   1.852  0.1221  0.0400 -0.0698
 1479SOL    HW1 4478   1.757   1.652   1.858 -0.0266  0.1367  0.0190
 1479SOL    HW2 4479   1.886   1.710   1.804  0.4397 -0.3272  0.6164
 1480SOL     OW 4480   3.368   3.564   2.188 -0.2676 -0.0587  0.3180
 1480SOL    HW1 4481   3.400   3.538   2.274 -0.9666 -0.8271  0.3568
 1480SOL    HW2 4482   3.283   3.522   2.180  0.1883 -0.7817 -1.1237
 1481SOL     OW 4483   3.147   3.938   2.766  0.1709  0.7772  0.0079
 1481SOL    HW1 4484   3.075   3.891   2.808 -0.0521 -0.8877 -2.1255
 1481SOL    HW2 4485   3.212   3.871   2.747  1.3381  1.9044 -0.0416
 1482SOL     OW 4486   2.855   2.377   2.111 -0.3185 -0.6443  0.7700
 1482SOL    HW1 4487   2.829   2.352   2.200  0.0073 -1.9468  0.5182
 1482SOL    HW2 4488   2.838   2.299   2.058  1.2366 -0.5266  0.0409
 1483SOL     OW 4489   2.335   2.522   2.613  0.3891  0.0319  0.3599
 1483SOL    HW1 4490   2.366   2.544   2.525 -0.4117 -1.1724 -0.2454
 1483SOL    HW2 4491   2.295   2.436   2.603 -0.4730  0.2546  1.7390
 1484SOL     OW 4492   2.747   3.540   2.526  0.4429  0.2424 -0.0962
 1484SOL    HW1 4493   2.680   3.513   2.589  1.2814 -1.3240  0.1897
 1484SOL    HW2 4494   2.709   3.519   2.441  0.5727 -0.7214  0.0665
 1485SOL     OW 4495   2.863   2.797   2.818 -0.0019 -0.2867  0.4727
 1485SOL    HW1 4496   2.906   2.731   2.873  0.0685  0.1063  0.8918
 1485SOL    HW2 4497   2.872   2.879   2.867 -0.3172 -0.0121  0.0757
 1486SOL     OW 4498   3.331   2.615   1.955 -0.1727 -0.0772 -1.2851
 1486SOL    HW1 4499   3.240   2.587   1.958 -0.3668  0.5509 -1.1855
 1486SOL    HW2 4500   3.344   2.646   1.865  0.3003 -1.3079 -1.6638
 1487SOL     OW 4501   3.654   3.317   2.726  0.3696 -0.2005 -0.0881
 1487SOL    HW1 4502   3.570   3.273   2.710  0.3064 -0.1019 -0.0281
 1487SOL    HW2 4503   3.717   3.245   2.734  0.2613 -0.2824  0.0477
 1488SOL     OW 4504   2.030   2.873   2.777 -0.3166  0.3150 -0.5969
 1488SOL    HW1 4505   1.984   2.808   2.830  0.6970  0.6783  0.7830
 1488SOL    HW2 4506   2.072   2.822   2.708 -1.4767 -0.1925 -0.9475
 1489SOL     OW 4507   2.182   2.283   2.613 -0.3506 -0.1939  0.4184
 1489SOL    HW1 4508   2.110   2.225   2.589  0.2307 -0.6475 -0.2892
 1489SOL    HW2 4509   2.225   2.238   2.687 -0.8343  0.1166  0.8929
 1490SOL     OW 4510   2.886   3.186   2.241 -0.4153  0.1324 -0.0415
 1490SOL    HW1 4511   2.877   3.146   2.328 -0.8032  0.3758  0.0369
 1490SOL    HW2 4512   2.828   3.262   2.245  0.7175  1.0258  0.0042
 1491SOL     OW 4513   3.251   2.359   2.941  0.2618 -0.1196  0.0623
 1491SOL    HW1 4514   3.335   2.402   2.924  1.2208 -1.9889 -0.2097
 1491SOL    HW2 4515   3.244   2.357   3.037  1.4147 -1.4592  0.1593
 1492SOL     OW 4516   2.835   6.229   2.953  0.3256 -0.0052 -0.4300
 1492SOL    HW1 4517   2.902   6.242   3.020 -1.2457 -0.2534  1.2597
 1492SOL    HW2 4518   2.883   6.196   2.877  1.9795 -1.1637  1.0409
 1493SOL     OW 4519   2.572   3.261   2.347 -0.3251 -0.0175  0.4172
 1493SOL    HW1 4520   2.486   3.300   2.333 -0.3724 -0.3128 -0.1839
 1493SOL    HW2 4521   2.554   3.178   2.391 -0.2649  0.3659  1.1894
 1494SOL     OW 4522   2.915   2.048   2.058  0.2420 -0.1360 -0.2375
 1494SOL    HW1 4523   2.994   2.070   2.107  0.0387 -1.4887  0.7565
 1494SOL    HW2 4524   2.861   1.999   2.120 -0.8305 -0.3111 -1.2759
 1495SOL     OW 4525   2.838   2.217   2.351 -0.1504 -0.8253  0.5380
 1495SOL    HW1 4526   2.785   2.270   2.411 -1.4337 -0.4711 -0.8625
 1495SOL    HW2 4527   2.775   2.157   2.311  0.8850 -1.8167  0.3532
 1496SOL     OW 4528   3.574   2.217   2.970 -0.2641 -0.5167 -0.2303
 1496SOL    HW1 4529   3.594   2.241   3.060  1.4217  0.9732 -0.9389
 1496SOL    HW2 4530   3.504   2.151   2.978  0.7166 -1.3929  2.1886
 1497SOL     OW 4531   2.143   2.749   2.533 -0.1995 -0.6264  0.1130
 1497SOL    HW1 4532   2.113   2.763   2.443  0.6481  0.1985 -0.0610
 1497SOL    HW2 4533   2.222   2.804   2.540 -0.7775  0.0474  1.6368
 1498SOL     OW 4534   2.853   3.631   2.058  0.2657 -0.5638  0.3035
 1498SOL    HW1 4535   2.844   3.681   2.139  0.5323 -0.7888  0.4755
 1498SOL    HW2 4536   2.778   3.657   2.005  1.1856  1.1195 -0.2365
 1499SOL     OW 4537   4.236   2.254   2.875 -0.1118  0.2661  0.0796
 1499SOL    HW1 4538   4.159   2.215   2.917  0.2692 -0.5375  0.0550
 1499SOL    HW2 4539   4.297   2.269   2.947 -0.1232  0.5059  0.0404
 1500SOL     OW 4540   1.958   4.083   1.160 -0.1445 -0.4567  0.2889
 1500SOL    HW1 4541   1.868   4.112   1.175 -0.1332  0.4259 -1.2124
 1500SOL    HW2 4542   1.976   4.023   1.233 -1.4415  0.4667  1.4138
 1501SOL     OW 4543   1.953   4.087   0.686 -0.1269  0.1682 -0.0877
 1501SOL    HW1 4544   1.968   3.996   0.709  2.2345  0.4133 -0.4546
 1501SOL    HW2 4545   1.899   4.084   0.607 -1.3754 -0.8220  0.7537
 1502SOL     OW 4546   3.642   4.187   0.475 -0.1776  0.1574  0.2328
 1502SOL    HW1 4547   3.592   4.108   0.457 -1.0420  0.8844 -0.6853
 1502SOL    HW2 4548   3.615   4.249   0.407 -0.4959  1.6600  1.6595
 1503SOL     OW 4549   2.582   3.861   1.502  1.4422  0.3373 -0.1451
 1503SOL    HW1 4550   2.534   3.903   1.573  1.9171  1.2728 -0.3659
 1503SOL    HW2 4551   2.668   3.902   1.504  1.5055  0.2822 -1.1814
 1504SOL     OW 4552   3.199   4.416   0.738  0.1175 -0.2528 -0.7958
 1504SOL    HW1 4553   3.121   4.367   0.713 -0.4051  0.6720 -1.0271
 1504SOL    HW2 4554   3.262   4.401   0.667 -0.1928 -0.2392 -1.0729
 1505SOL     OW 4555   1.630   4.414   1.387 -0.0719  0.8598  0.1682
 1505SOL    HW1 4556   1.664   4.501   1.411 -0.3757  0.5689  1.7602
 1505SOL    HW2 4557   1.670   4.355   1.450  2.3192 -0.6650 -2.5364
 1506SOL     OW 4558   2.325   4.010   0.512  0.3257  0.3876 -0.1546
 1506SOL    HW1 4559   2.313   4.002   0.606  3.1740 -0.9740  0.2081
 1506SOL    HW2 4560   2.270   3.941   0.475  0.6763 -0.3782  0.7045
 1507SOL     OW 4561   1.847   4.310   2.025 -0.3390 -0.0650 -0.4615
 1507SOL    HW1 4562   1.943   4.320   2.022 -0.1785 -0.8958  0.8536
 1507SOL    HW2 4563   1.822   4.351   2.107 -0.9737 -0.7765 -0.2917
 1508SOL     OW 4564   2.909   4.005   0.691  0.0734 -0.1166  0.1828
 1508SOL    HW1 4565   2.989   4.031   0.737 -0.0592  0.5569  0.0430
 1508SOL    HW2 4566   2.838   4.025   0.752 -0.1122  0.9070 -0.3494
 1509SOL     OW 4567   3.032   3.817   1.966  0.1269 -0.3307  0.4044
 1509SOL    HW1 4568   2.969   3.745   1.974  0.3506 -0.4905  0.7615
 1509SOL    HW2 4569   3.061   3.833   2.056  1.5809 -1.1446  0.1080
 1510SOL     OW 4570   3.057   4.294   0.970 -0.0416  0.2657 -0.3884
 1510SOL    HW1 4571   3.012   4.351   0.907  0.4725  0.9907 -0.1108
 1510SOL    HW2 4572   3.098   4.227   0.916 -1.7466 -0.6473 -0.6286
 1511SOL     OW 4573   3.022   4.311   0.217 -0.0324  0.0382 -0.4932
 1511SOL    HW1 4574   3.089   4.251   0.184  1.0351 -0.6574  2.5796
 1511SOL    HW2 4575   2.942   4.258   0.222  0.1667 -0.2723 -0.6068
 1512SOL     OW 4576   2.204   4.190   1.005  0.0509 -0.1301  0.1530
 1512SOL    HW1 4577   2.257   4.257   1.047  0.9237 -1.0704  0.6056
 1512SOL    HW2 4578   2.131   4.174   1.064  0.5357 -0.4734  0.6685
 1513SOL     OW 4579   3.681   4.469   2.260 -0.0413 -0.5669  0.4539
 1513SOL    HW1 4580   3.671   4.564   2.258  0.6280 -0.4429 -3.0902
 1513SOL    HW2 4581   3.770   4.454   2.292 -0.2228 -0.0737  1.2299
 1514SOL     OW 4582   2.375   3.730   0.681  0.2834  0.0322 -0.0656
 1514SOL    HW1 4583   2.446   3.735   0.746  0.4228 -0.5000 -0.1729
 1514SOL    HW2 4584   2.313   3.797   0.709  1.2891  1.2085 -0.5472
 1515SOL     OW 4585   3.609   4.552   0.807 -0.2959  0.3564  0.2522
 1515SOL    HW1 4586   3.526   4.600   0.801  0.2539  1.2096 -1.2855
 1515SOL    HW2 4587   3.664   4.606   0.863 -0.5425  0.1566  0.6888
 1516SOL     OW 4588   2.280   3.972   2.115 -0.4424  0.2365 -0.3300
 1516SOL    HW1 4589   2.282   4.049   2.171 -2.0039 -1.3030  2.0401
 1516SOL    HW2 4590   2.342   3.911   2.155  0.1499 -0.0872 -1.6728
 1517SOL     OW 4591   3.131   3.655   0.580 -0.3491 -0.2549 -0.1257
 1517SOL    HW1 4592   3.043   3.664   0.544  0.2562  0.2695 -1.5375
 1517SOL    HW2 4593   3.170   3.582   0.532  0.7976  1.0587 -1.2705
 1518SOL     OW 4594   3.289   3.809   1.846 -0.2491  0.1182  0.2132
 1518SOL    HW1 4595   3.216   3.748   1.852 -0.7139  0.7598  1.8044
 1518SOL    HW2 4596   3.249   3.894   1.866  1.1281  0.3029  2.4469
 1519SOL     OW 4597   2.805   4.027   1.534  0.2767 -0.1875 -0.5043
 1519SOL    HW1 4598   2.870   3.970   1.494 -0.0970 -0.9239 -0.0835
 1519SOL    HW2 4599   2.854   4.080   1.597  0.2369 -1.9671  1.1066
 1520SOL     OW 4600   3.161   4.140   1.770  0.0554  0.2762  0.0259
 1520SOL    HW1 4601   3.090   4.085   1.804  0.7222 -1.0394 -0.6129
 1520SOL    HW2 4602   3.222   4.149   1.843  0.1999 -0.3121 -0.0133
 1521SOL     OW 4603   2.165   3.827   0.403 -0.0992  1.0351  0.0789
 1521SOL    HW1 4604   2.138   3.737   0.421  1.1908  0.3451 -1.2048
 1521SOL    HW2 4605   2.118   3.850   0.323  0.8629  0.8347 -0.5741
 1522SOL     OW 4606   2.920   3.689   0.755  0.0964 -0.8604  0.5902
 1522SOL    HW1 4607   3.009   3.662   0.738  0.4024  0.2572  0.3177
 1522SOL    HW2 4608   2.928   3.758   0.822 -0.7566 -2.3949  2.3804
 1523SOL     OW 4609   2.067   4.294   1.373 -0.1140  0.9413  0.1531
 1523SOL    HW1 4610   2.049   4.346   1.294 -0.7549  0.7741  0.1850
 1523SOL    HW2 4611   2.035   4.207   1.351 -0.5924  0.9696  0.7091
 1524SOL     OW 4612   2.567   3.855   1.021  0.1723 -0.2576  0.0182
 1524SOL    HW1 4613   2.635   3.856   1.089 -1.4223 -1.9879  1.7802
 1524SOL    HW2 4614   2.575   3.768   0.981 -0.3717 -0.1182 -0.3982
 1525SOL     OW 4615   2.813   3.588   1.040 -0.2535  0.0087  0.1822
 1525SOL    HW1 4616   2.865   3.556   0.966  0.0946  1.6739 -0.3333
 1525SOL    HW2 4617   2.849   3.542   1.116  0.1143 -0.9103 -0.5239
 1526SOL     OW 4618   3.457   4.255   0.762  0.1638 -0.1343 -0.5404
 1526SOL    HW1 4619   3.464   4.342   0.801  0.2129 -0.2398 -0.3062
 1526SOL    HW2 4620   3.539   4.211   0.788  0.3349 -0.1055 -1.0236
 1527SOL     OW 4621   2.092   3.923   0.169  0.5434  0.2454 -0.0278
 1527SOL    HW1 4622   2.181   3.915   0.136  0.5799 -0.3001  0.1904
 1527SOL    HW2 4623   2.068   4.014   0.153  0.3916 -0.0936 -1.9786
 1528SOL     OW 4624   2.950   3.867   1.380  0.2982  0.3815  0.3560
 1528SOL    HW1 4625   2.971   3.775   1.398  0.2190  0.5281  1.2487
 1528SOL    HW2 4626   3.034   3.906   1.357  0.0791 -0.2741 -1.7567
 1529SOL     OW 4627   3.493   3.830   1.294  0.5682 -0.0259 -0.2193
 1529SOL    HW1 4628   3.587   3.817   1.299  0.4376 -0.5384  1.1361
 1529SOL    HW2 4629   3.457   3.744   1.274  0.2996 -0.1217  0.6324
 1530SOL     OW 4630   2.387   4.066   0.807  0.0234 -0.3695 -0.0392
 1530SOL    HW1 4631   2.478   4.061   0.835  0.2376  0.0097 -0.6507
 1530SOL    HW2 4632   2.341   4.107   0.881  0.3606 -0.4669  0.2275
 1531SOL     OW 4633   2.308   3.611   1.739  0.1528  0.6333  0.1777
 1531SOL    HW1 4634   2.264   3.696   1.735  1.2838  1.4210  2.7233
 1531SOL    HW2 4635   2.257   3.561   1.803  0.3750 -0.0646 -0.1831
 1532SOL     OW 4636   2.177   3.883   0.788  0.0112 -0.0781  0.6984
 1532SOL    HW1 4637   2.138   3.833   0.859  0.4944  0.4545  1.3538
 1532SOL    HW2 4638   2.205   3.965   0.829  0.2175  0.2734 -0.1228
 1533SOL     OW 4639   2.713   4.401   1.038 -0.0591 -0.0982 -0.0579
 1533SOL    HW1 4640   2.637   4.344   1.041 -0.0812 -0.0678 -0.0426
 1533SOL    HW2 4641   2.771   4.368   1.107  1.0057 -1.6052 -1.5848
 1534SOL     OW 4642   1.953   3.594   0.844  0.2985  0.6180 -0.1365
 1534SOL    HW1 4643   1.892   3.546   0.788  0.8661  0.0231 -0.2543
 1534SOL    HW2 4644   2.038   3.554   0.827  0.8067  1.7062 -0.2878
 1535SOL     OW 4645   3.593   3.837   0.084  0.5609 -0.7285 -0.2091
 1535SOL    HW1 4646   3.679   3.843   0.044  1.5872  3.2173  2.0346
 1535SOL    HW2 4647   3.534   3.878   0.020  0.8786 -0.8265 -0.5693
 1536SOL     OW 4648   3.251   4.148   0.127  0.3084 -0.2689  0.1248
 1536SOL    HW1 4649   3.294   4.175   0.208  1.3859  0.0406 -0.5220
 1536SOL    HW2 4650   3.257   4.052   0.127  2.9133 -0.1941 -0.8951
 1537SOL     OW 4651   2.240   4.014   1.422  0.0675 -0.1669 -0.4290
 1537SOL    HW1 4652   2.155   3.970   1.408  0.1342 -0.6177  0.5036
 1537SOL    HW2 4653   2.287   4.001   1.340 -0.8706  0.3368 -1.0651
 1538SOL     OW 4654   3.109   4.264   1.490  0.7129 -0.3446  0.4252
 1538SOL    HW1 4655   3.068   4.212   1.421  0.3001  0.1959  0.2465
 1538SOL    HW2 4656   3.117   4.205   1.565 -0.1259 -0.5507  0.3628
 1539SOL     OW 4657   3.372   3.939   1.611 -0.0774 -0.9052 -0.5586
 1539SOL    HW1 4658   3.347   3.849   1.634  1.0915 -1.1515 -0.2139
 1539SOL    HW2 4659   3.394   3.980   1.694  0.9213 -0.7856 -0.8679
 1540SOL     OW 4660   1.636   4.161   1.251  0.4587  0.2243 -0.1155
 1540SOL    HW1 4661   1.554   4.133   1.292  0.3185  0.9075  0.0891
 1540SOL    HW2 4662   1.611   4.190   1.164  0.9091 -2.2293 -1.1342
 1541SOL     OW 4663   1.983   4.087   1.724  0.0549  0.2832  0.6384
 1541SOL    HW1 4664   1.913   4.077   1.788  0.9970 -1.9805  1.4248
 1541SOL    HW2 4665   2.021   4.173   1.743 -0.2704  0.0497  2.5441
 1542SOL     OW 4666   2.706   3.979   0.508 -0.4652 -0.2304  0.1629
 1542SOL    HW1 4667   2.685   4.069   0.533 -3.5619 -0.5664 -0.8797
 1542SOL    HW2 4668   2.762   3.947   0.578  2.0612  2.9087 -0.1555
 1543SOL     OW 4669   3.414   4.445   1.241 -0.1386  0.6624  0.7558
 1543SOL    HW1 4670   3.406   4.446   1.145  0.9709 -0.9056  0.6188
 1543SOL    HW2 4671   3.376   4.362   1.268  0.4442  0.6517  1.5895
 1544SOL     OW 4672   3.244   3.929   1.369 -0.0857 -0.2530  0.0060
 1544SOL    HW1 4673   3.269   3.946   1.460  1.3752 -0.2168 -0.3818
 1544SOL    HW2 4674   3.326   3.903   1.326 -0.7611 -0.2855 -1.2971
 1545SOL     OW 4675   3.336   3.744   0.365 -0.6328 -0.5065  0.1185
 1545SOL    HW1 4676   3.408   3.682   0.374  0.6784  0.8692 -0.4277
 1545SOL    HW2 4677   3.272   3.717   0.430 -0.5419 -2.9739 -0.7249
 1546SOL     OW 4678   3.745   3.787   1.346 -0.1996 -0.3220 -0.0264
 1546SOL    HW1 4679   3.744   3.692   1.340 -0.0506 -0.3122 -0.2396
 1546SOL    HW2 4680   3.826   3.813   1.300 -0.2344 -0.0960  0.0379
 1547SOL     OW 4681   2.084   3.759   1.012 -0.4497 -0.6126  0.0533
 1547SOL    HW1 4682   2.012   3.731   0.955 -0.5786 -1.4454  0.6096
 1547SOL    HW2 4683   2.045   3.764   1.099 -0.1298  0.1605  0.1620
 1548SOL     OW 4684   2.915   3.873   0.975  0.1113 -0.6483 -0.3360
 1548SOL    HW1 4685   2.889   3.791   1.017  0.0218 -0.3662  0.1624
 1548SOL    HW2 4686   3.010   3.878   0.989  0.0414 -0.4239  0.0664
 1549SOL     OW 4687   3.709   3.787   1.629  0.2651 -0.3567 -0.0494
 1549SOL    HW1 4688   3.693   3.751   1.541  0.6705  0.5243 -0.5041
 1549SOL    HW2 4689   3.746   3.874   1.612  1.3137 -0.5834  0.9855
 1550SOL     OW 4690   2.695   3.812   1.265 -0.2765  0.2052 -0.0392
 1550SOL    HW1 4691   2.622   3.845   1.318 -0.3353 -2.1956  1.5270
 1550SOL    HW2 4692   2.772   3.821   1.321  0.5775  1.9071 -1.3576
 1551SOL     OW 4693   1.756   4.056   0.285 -0.4703  0.1790 -0.1062
 1551SOL    HW1 4694   1.714   3.997   0.223 -0.4398 -1.2270  1.1493
 1551SOL    HW2 4695   1.732   4.022   0.371  0.3925  1.4130  0.6598
 1552SOL     OW 4696   1.606   4.293   0.330  0.3032 -0.6596 -0.2937
 1552SOL    HW1 4697   1.686   4.317   0.376  1.8858 -1.7674 -2.2860
 1552SOL    HW2 4698   1.629   4.214   0.282 -2.1320 -1.2377 -0.6351
 1553SOL     OW 4699   2.691   4.196   1.366  0.5053  0.1716 -0.3482
 1553SOL    HW1 4700   2.751   4.145   1.420 -0.6489 -0.5974  0.2331
 1553SOL    HW2 4701   2.687   4.149   1.283 -0.2586 -0.4945  0.0538
 1554SOL     OW 4702   3.036   4.084   0.437  0.6065 -0.3579 -0.1578
 1554SOL    HW1 4703   2.986   4.061   0.516 -2.0578  2.7702 -0.7067
 1554SOL    HW2 4704   3.126   4.093   0.467 -0.1413 -0.2796  2.2911
 1555SOL     OW 4705   3.900   4.082   1.996  0.2067  0.5913  0.9196
 1555SOL    HW1 4706   3.833   4.140   2.032  0.1635  1.5534 -0.6364
 1555SOL    HW2 4707   3.975   4.093   2.054  0.4053  2.7086  0.3468
 1556SOL     OW 4708   3.797   4.043   1.543  0.0403 -0.4891  0.7877
 1556SOL    HW1 4709   3.803   4.000   1.458  1.0718 -0.8631  1.0220
 1556SOL    HW2 4710   3.716   4.093   1.540 -0.1092 -0.7724 -0.2827
 1557SOL     OW 4711   2.116   4.291   0.702  0.1950 -0.4550 -0.0777
 1557SOL    HW1 4712   2.161   4.261   0.781 -0.9017 -2.3622 -0.1051
 1557SOL    HW2 4713   2.042   4.230   0.692 -2.1709  2.2092 -0.2736
 1558SOL     OW 4714   2.460   4.016   1.915  0.2036 -0.7915 -0.0824
 1558SOL    HW1 4715   2.387   4.014   1.978  0.0306 -2.1372 -0.2849
 1558SOL    HW2 4716   2.417   4.021   1.829  0.4516  1.5398 -0.1140
 1559SOL     OW 4717   3.150   4.074   0.838 -0.2161 -0.4926 -0.4718
 1559SOL    HW1 4718   3.196   4.003   0.881  0.9414 -0.1643 -1.1314
 1559SOL    HW2 4719   3.203   4.094   0.761 -0.9370  0.5631 -0.7151
 1560SOL     OW 4720   3.169   3.849   1.039  0.1910 -0.1576 -0.0844
 1560SOL    HW1 4721   3.227   3.820   0.968 -0.6556 -2.7924  0.1912
 1560SOL    HW2 4722   3.226   3.849   1.116  0.4475 -0.1310 -0.2699
 1561SOL     OW 4723   3.303   4.120   0.577 -0.3343  0.3854 -0.9019
 1561SOL    HW1 4724   3.351   4.144   0.497 -0.6157  0.0912 -1.1600
 1561SOL    HW2 4725   3.353   4.162   0.648  0.9689 -0.8304 -1.0590
 1562SOL     OW 4726   3.785   3.992   0.929  0.0452 -0.0695 -0.0063
 1562SOL    HW1 4727   3.714   4.054   0.944  0.7779  0.9850 -0.7839
 1562SOL    HW2 4728   3.847   4.010   1.000  0.3476  0.2276 -0.3430
 1563SOL     OW 4729   6.228   3.609   2.874 -0.1125  0.2097  0.1358
 1563SOL    HW1 4730   6.309   3.661   2.874  1.4130 -2.0149  0.5148
 1563SOL    HW2 4731   6.221   3.576   2.785  0.3136 -0.8541  0.4721
 1564SOL     OW 4732   1.787   3.977   2.367  0.4492  0.3845  0.2129
 1564SOL    HW1 4733   1.696   4.000   2.386  0.6100  0.1969  1.2966
 1564SOL    HW2 4734   1.785   3.938   2.280 -0.8097 -1.4021  0.9877
 1565SOL     OW 4735   3.449   4.285   2.235 -0.1002  0.3458  0.0255
 1565SOL    HW1 4736   3.521   4.340   2.265  0.2117 -0.0368 -0.0022
 1565SOL    HW2 4737   3.437   4.221   2.305  0.4022 -0.3384 -0.5065
 1566SOL     OW 4738   2.594   4.037   2.380  0.3280  0.3277  0.7323
 1566SOL    HW1 4739   2.537   4.102   2.422  1.4234  0.4023  2.1651
 1566SOL    HW2 4740   2.587   3.959   2.435 -0.5353 -0.6309 -0.6612
 1567SOL     OW 4741   1.445   1.660   0.103  0.5714 -0.0237 -0.7069
 1567SOL    HW1 4742   1.452   1.701   0.017 -0.8973  0.5827 -0.5713
 1567SOL    HW2 4743   1.512   1.703   0.156  0.3671  0.8105 -1.1017
 1568SOL     OW 4744   1.813   4.050   1.945 -0.3093 -0.1220 -0.4957
 1568SOL    HW1 4745   1.719   4.032   1.946 -0.1712 -0.8777  0.1086
 1568SOL    HW2 4746   1.822   4.136   1.985 -0.6675 -0.4903  0.4016
 1569SOL     OW 4747   2.911   4.009   1.795  0.1973 -0.3932 -0.4566
 1569SOL    HW1 4748   2.868   3.976   1.874 -0.5527  1.0442 -0.2338
 1569SOL    HW2 4749   2.927   3.931   1.742 -2.0355 -1.0956 -0.2182
 1570SOL     OW 4750   2.966   3.723   2.552  0.3892 -0.0749 -0.0345
 1570SOL    HW1 4751   2.993   3.648   2.498 -0.9090 -0.0452 -0.7739
 1570SOL    HW2 4752   2.895   3.689   2.606  0.7917  0.2495  0.7007
 1571SOL     OW 4753   2.145   4.289   2.688 -0.1106 -0.1959  0.0029
 1571SOL    HW1 4754   2.225   4.284   2.636  0.3776  0.6047  0.6552
 1571SOL    HW2 4755   2.119   4.198   2.702  0.5554 -0.4514 -0.4107
 1572SOL     OW 4756   2.680   4.091   2.049  0.3611  0.6946 -0.2243
 1572SOL    HW1 4757   2.608   4.055   1.997  0.7724 -1.5733  0.6434
 1572SOL    HW2 4758   2.650   4.084   2.139  1.4499  0.1312  0.1149
 1573SOL     OW 4759   2.543   3.797   2.538 -0.0616  0.2410 -0.1308
 1573SOL    HW1 4760   2.550   3.721   2.480 -0.1762 -0.0985  0.2982
 1573SOL    HW2 4761   2.449   3.813   2.546 -0.2611 -1.6019  2.3731
 1574SOL     OW 4762   3.348   4.417   2.853  0.4512 -0.0381 -0.1391
 1574SOL    HW1 4763   3.315   4.490   2.904 -2.9422 -0.8206 -0.9942
 1574SOL    HW2 4764   3.295   4.342   2.880  0.4305 -1.0823 -2.7173
 1575SOL     OW 4765   3.400   4.084   2.400 -0.1291  0.8620 -0.2982
 1575SOL    HW1 4766   3.402   3.994   2.366 -0.9779  1.2176 -1.3380
 1575SOL    HW2 4767   3.324   4.085   2.458 -0.6372  1.1244 -0.9554
 1576SOL     OW 4768   2.600   3.465   2.085 -0.2306  0.6255 -0.3095
 1576SOL    HW1 4769   2.596   3.371   2.065  1.9683  0.3287  0.3902
 1576SOL    HW2 4770   2.592   3.508   2.000 -1.8617 -0.1493 -0.5797
 1577SOL     OW 4771   3.588   4.201   2.980 -0.4170 -0.6721  0.4986
 1577SOL    HW1 4772   3.612   4.275   2.923  1.4844 -3.0931 -2.1518
 1577SOL    HW2 4773   3.514   4.233   3.031 -1.4145  2.2238 -2.4018
 1578SOL     OW 4774   2.831   3.783   2.306  0.1569 -0.4170 -0.3146
 1578SOL    HW1 4775   2.742   3.814   2.324  0.0024 -1.5304  1.0385
 1578SOL    HW2 4776   2.887   3.848   2.348 -0.0798 -0.4754  0.1083
 1579SOL     OW 4777   1.722   3.787   2.120 -0.5361 -0.1946 -0.2886
 1579SOL    HW1 4778   1.704   3.717   2.183 -0.1662 -1.2644 -1.3416
 1579SOL    HW2 4779   1.817   3.798   2.125 -0.3513 -1.0686 -1.4315
 1580SOL     OW 4780   2.286   4.159   2.320  0.3293  0.0427  0.5084
 1580SOL    HW1 4781   2.201   4.125   2.350 -0.2315  2.2428  1.5655
 1580SOL    HW2 4782   2.344   4.145   2.394 -0.2019  2.3500  1.4249
 1581SOL     OW 4783   5.900   4.298   2.833  0.1599  0.0521 -0.1239
 1581SOL    HW1 4784   5.944   4.342   2.761  0.1838 -1.1098 -0.8386
 1581SOL    HW2 4785   5.968   4.284   2.899  0.1091  1.2231  0.1972
 1582SOL     OW 4786   0.108   1.453   0.122  0.7230 -0.0548 -0.1103
 1582SOL    HW1 4787   0.091   1.364   0.091  0.4323 -0.8410  2.0874
 1582SOL    HW2 4788   0.194   1.448   0.163  0.0731  0.2317  1.3828
 1583SOL     OW 4789   3.003   3.959   2.422 -0.0572 -0.2604  0.4500
 1583SOL    HW1 4790   3.066   4.024   2.450  0.7477 -0.6524 -0.4108
 1583SOL    HW2 4791   3.010   3.889   2.488  0.4528 -0.3291  0.3271
 1584SOL     OW 4792   3.644   3.941   2.926  0.5930  0.6008 -0.1427
 1584SOL    HW1 4793   3.576   3.900   2.874  0.8535 -2.0688  1.4441
 1584SOL    HW2 4794   3.624   4.035   2.923 -2.6906 -0.0098 -0.3513
 1585SOL     OW 4795   2.387   4.379   2.144 -0.2163 -0.5648 -0.6262
 1585SOL    HW1 4796   2.361   4.293   2.176 -0.0169 -0.0237  1.1426
 1585SOL    HW2 4797   2.481   4.371   2.127 -0.4817 -1.0831 -1.8929
 1586SOL     OW 4798   2.575   4.234   2.724  0.2991  0.2899  0.3638
 1586SOL    HW1 4799   2.620   4.190   2.796  0.4776 -0.4104 -0.1587
 1586SOL    HW2 4800   2.586   4.327   2.742  0.7569  0.1244  0.9853
 1587SOL     OW 4801   1.961   3.759   2.436 -0.0344 -0.0671 -0.2191
 1587SOL    HW1 4802   2.026   3.811   2.482 -0.9448  0.3756  0.6097
 1587SOL    HW2 4803   1.908   3.822   2.388  1.1542 -0.5446 -2.3077
 1588SOL     OW 4804   3.600   4.387   2.785 -0.3132  0.1220  0.4468
 1588SOL    HW1 4805   3.603   4.306   2.734  1.1579  0.2698  0.2516
 1588SOL    HW2 4806   3.512   4.388   2.823 -0.2485 -1.7535  0.7682
 1589SOL     OW 4807   3.495   4.084   2.060  0.2442  0.5605 -0.3971
 1589SOL    HW1 4808   3.496   4.165   2.111 -1.2099  0.0857  0.4294
 1589SOL    HW2 4809   3.519   4.016   2.124  0.8195  0.2407 -0.9396
 1590SOL     OW 4810   2.354   3.842   3.004  0.3422  0.0029  0.2562
 1590SOL    HW1 4811   2.323   3.804   3.086  2.0899 -0.3786  0.7705
 1590SOL    HW2 4812   2.334   3.936   3.012 -0.0358 -0.1201  0.8490
 1591SOL     OW 4813   0.724   2.617   0.252  0.7237 -0.0501  0.5739
 1591SOL    HW1 4814   0.655   2.576   0.199  0.4039  2.2938 -0.9777
 1591SOL    HW2 4815   0.678   2.656   0.326  0.3781  1.2672 -0.3101
 1592SOL     OW 4816   3.361   1.963   0.111  0.4468 -0.0730 -0.4535
 1592SOL    HW1 4817   3.280   1.932   0.150  0.9163  1.9699  2.4247
 1592SOL    HW2 4818   3.404   1.883   0.078 -0.0318 -2.0879  3.3023
 1593SOL     OW 4819   2.652   4.349   2.040  0.1346  0.0655  0.5217
 1593SOL    HW1 4820   2.680   4.258   2.027  1.8515  0.8117 -1.7503
 1593SOL    HW2 4821   2.731   4.394   2.070  0.0482  1.2466 -0.8883
 1594SOL     OW 4822   1.572   1.956   0.149 -0.2997  0.0232 -0.0036
 1594SOL    HW1 4823   1.522   1.972   0.069  0.0612 -0.1229 -0.2609
 1594SOL    HW2 4824   1.655   1.921   0.118  0.3012  1.0730  0.3584
 1595SOL     OW 4825   3.827   3.977   2.646 -0.5957  0.4970  0.8653
 1595SOL    HW1 4826   3.917   3.990   2.678 -0.6390 -1.0116  1.7109
 1595SOL    HW2 4827   3.795   3.902   2.697 -1.4229 -0.6689 -1.2675
 1596SOL     OW 4828   3.881   3.748   2.967 -0.0112 -0.8312  0.0333
 1596SOL    HW1 4829   3.847   3.659   2.972 -0.4681 -0.8468 -2.2473
 1596SOL    HW2 4830   3.806   3.801   2.938  0.0995  0.4365  1.8623
 1597SOL     OW 4831   2.052   4.084   2.441  0.5508  0.3002 -0.5574
 1597SOL    HW1 4832   1.959   4.062   2.447  0.0373  2.6093  2.1808
 1597SOL    HW2 4833   2.096   4.017   2.493  0.1008  0.6247  0.2548
 1598SOL     OW 4834   2.709   3.861   2.776 -0.1189 -0.1992  0.0250
 1598SOL    HW1 4835   2.680   3.840   2.687  2.0771  0.6446 -0.9658
 1598SOL    HW2 4836   2.686   3.783   2.827 -0.1365 -1.3112 -1.5939
 1599SOL     OW 4837   2.211   4.347   1.779  0.3974 -0.0952  0.1274
 1599SOL    HW1 4838   2.267   4.420   1.756  0.8642 -0.5673 -0.2581
 1599SOL    HW2 4839   2.264   4.269   1.762  0.1348 -0.5102  1.1355
 1600SOL     OW 4840   1.561   3.952   1.984 -0.2804 -0.4747  0.8502
 1600SOL    HW1 4841   1.518   3.889   1.926 -1.8355 -1.5241  2.9445
 1600SOL    HW2 4842   1.625   3.900   2.033 -2.0220 -0.7254  3.0597
 1601SOL     OW 4843   3.085   4.440   2.329  0.5067 -0.2355 -0.2011
 1601SOL    HW1 4844   3.150   4.421   2.397  0.5807 -1.5178 -0.6022
 1601SOL    HW2 4845   3.020   4.371   2.339 -0.4660  0.6635 -0.2287
 1602SOL     OW 4846   1.946   4.392   2.415 -0.6391  0.1214 -0.1329
 1602SOL    HW1 4847   1.865   4.393   2.363 -0.3800 -1.3740 -0.6168
 1602SOL    HW2 4848   1.968   4.299   2.422  0.3732  0.4362  1.0507
 1603SOL     OW 4849   3.370   3.825   2.302  0.6431 -0.0604 -0.5520
 1603SOL    HW1 4850   3.430   3.761   2.264  1.0999 -0.0381  0.1094
 1603SOL    HW2 4851   3.309   3.772   2.354  0.6054 -0.0098 -0.5449
 1604SOL     OW 4852   2.395   4.124   2.549  0.7085 -0.1665  0.1568
 1604SOL    HW1 4853   2.357   4.043   2.584 -1.3623  0.6477 -0.0612
 1604SOL    HW2 4854   2.451   4.156   2.620  0.0730 -0.8229  0.9881
 1605SOL     OW 4855   3.131   3.873   2.220  0.9086  0.3887 -0.4562
 1605SOL    HW1 4856   3.217   3.878   2.263  1.0342  1.6532 -0.8298
 1605SOL    HW2 4857   3.069   3.892   2.290  1.0337  1.0715 -0.5241
 1606SOL     OW 4858   4.088   4.509   0.861 -0.1135  0.1528 -0.2873
 1606SOL    HW1 4859   4.181   4.487   0.857 -0.0513  0.2478  0.5284
 1606SOL    HW2 4860   4.044   4.425   0.873 -0.2501 -0.0546 -1.9934
 1607SOL     OW 4861   3.366   4.891   1.000 -0.6880 -1.4882 -0.1376
 1607SOL    HW1 4862   3.355   4.892   0.905  0.1839 -0.1170 -0.2551
 1607SOL    HW2 4863   3.302   4.955   1.032  0.1542 -0.7106  0.0296
 1608SOL     OW 4864   4.310   1.256   0.718  0.0900 -0.2198  0.0916
 1608SOL    HW1 4865   4.269   1.341   0.700  2.1588  0.7403 -0.3666
 1608SOL    HW2 4866   4.237   1.195   0.722 -1.6014  1.7431  1.5717
 1609SOL     OW 4867   3.838   1.332   1.054 -0.1763 -0.2650 -0.1178
 1609SOL    HW1 4868   3.927   1.301   1.035 -0.2552  0.1789 -1.2498
 1609SOL    HW2 4869   3.793   1.332   0.970 -0.8879  0.6619  0.2420
 1610SOL     OW 4870   4.370   4.884   1.345  0.4610 -0.4499  0.1665
 1610SOL    HW1 4871   4.414   4.888   1.260 -1.2442  1.2086 -0.7049
 1610SOL    HW2 4872   4.367   4.791   1.366 -0.2341 -1.0297 -2.2355
 1611SOL     OW 4873   3.908   1.606   0.427  0.3552 -0.0511 -0.1955
 1611SOL    HW1 4874   3.982   1.636   0.482 -0.7248  1.0336  0.7277
 1611SOL    HW2 4875   3.944   1.533   0.376  2.5687  1.5615 -1.0908
 1612SOL     OW 4876   4.024   1.098   0.698  0.1111  0.0905  0.0971
 1612SOL    HW1 4877   3.938   1.119   0.736  0.2177 -1.0044  0.9981
 1612SOL    HW2 4878   4.023   1.140   0.612 -1.1835  0.4121  0.2472
 1613SOL     OW 4879   4.341   1.305   1.104  0.3660  0.6864 -0.1974
 1613SOL    HW1 4880   4.385   1.347   1.030 -0.9713  1.3531 -0.6502
 1613SOL    HW2 4881   4.289   1.236   1.064  1.2451 -0.3334  0.3705
 1614SOL     OW 4882   3.620   4.974   0.969  0.2079  0.3338 -0.0072
 1614SOL    HW1 4883   3.627   5.005   0.879  1.1456  0.4867  0.1074
 1614SOL    HW2 4884   3.529   4.947   0.978  0.0765  0.4211 -0.9641
 1615SOL     OW 4885   3.843   5.041   1.630 -0.6511 -0.0893  0.2444
 1615SOL    HW1 4886   3.866   5.069   1.541 -1.6911 -1.1247 -0.3811
 1615SOL    HW2 4887   3.917   5.068   1.683 -0.8340  2.3027 -0.5745
 1616SOL     OW 4888   3.857   5.222   1.379  0.2207 -0.0669 -0.5933
 1616SOL    HW1 4889   3.929   5.265   1.333  0.9751  0.0516  0.6798
 1616SOL    HW2 4890   3.805   5.183   1.309  0.2769  1.7184 -1.7011
 1617SOL     OW 4891   4.122   4.742   1.551  0.0051  0.2796 -0.1345
 1617SOL    HW1 4892   4.182   4.799   1.598 -1.8810  0.6616  1.9592
 1617SOL    HW2 4893   4.064   4.801   1.504  0.8120 -0.0786 -1.6688
 1618SOL     OW 4894   3.551   1.085   0.771 -0.2397 -0.1716  0.3786
 1618SOL    HW1 4895   3.614   1.025   0.812  0.0590  0.2397  0.5227
 1618SOL    HW2 4896   3.478   1.088   0.833 -0.2391 -0.3518  0.3909
 1619SOL     OW 4897   3.540   1.970   1.636  0.1931  0.0840  0.9430
 1619SOL    HW1 4898   3.523   1.936   1.724 -2.7891 -0.1011  0.4090
 1619SOL    HW2 4899   3.538   2.065   1.646  0.1827  0.0661  1.1130
 1620SOL     OW 4900   0.506   4.424   0.444 -0.0380  0.4830  0.2722
 1620SOL    HW1 4901   0.565   4.496   0.465 -0.7931  1.2698 -0.2737
 1620SOL    HW2 4902   0.430   4.439   0.500 -0.0963 -0.0424  0.3395
 1621SOL     OW 4903   4.047   1.973   0.820 -0.0780 -0.3712  0.1294
 1621SOL    HW1 4904   4.050   2.067   0.837 -0.1130 -0.5014  0.8674
 1621SOL    HW2 4905   4.127   1.956   0.769 -0.0696  0.0554 -0.0075
 1622SOL     OW 4906   4.467   1.318   1.819  0.3767 -0.2060 -0.1152
 1622SOL    HW1 4907   4.495   1.405   1.847  2.1296 -0.2508 -1.5458
 1622SOL    HW2 4908   4.393   1.333   1.761  1.8050  0.5321 -1.8272
 1623SOL     OW 4909   3.943   4.506   1.594  0.5660 -0.0726 -0.4224
 1623SOL    HW1 4910   3.953   4.425   1.544  3.6769  0.6703 -1.2247
 1623SOL    HW2 4911   4.027   4.550   1.584 -0.8147  3.0088  0.4628
 1624SOL     OW 4912   3.939   2.234   1.076 -0.0615  0.3126  0.4272
 1624SOL    HW1 4913   3.892   2.196   1.003 -0.9981  1.6588  0.2843
 1624SOL    HW2 4914   4.025   2.194   1.074  0.1983  0.8780 -1.8896
 1625SOL     OW 4915   4.112   1.155   0.953 -0.0039  0.1290  0.1819
 1625SOL    HW1 4916   4.118   1.060   0.958  2.1786  0.2141  0.1952
 1625SOL    HW2 4917   4.096   1.173   0.860 -2.3852 -0.2676  0.4666
 1626SOL     OW 4918   0.031   4.159   0.044 -0.3766 -0.0063 -0.0660
 1626SOL    HW1 4919   0.125   4.175   0.049 -0.3893  0.3068 -0.7544
 1626SOL    HW2 4920  -0.009   4.233   0.088 -0.3054 -0.0731  0.1117
 1627SOL     OW 4921   4.447   0.257   0.354 -0.4125 -0.4566  0.0702
 1627SOL    HW1 4922   4.494   0.333   0.319  0.4461 -1.0580 -0.1243
 1627SOL    HW2 4923   4.373   0.294   0.401 -1.0198  0.4351 -1.5137
 1628SOL     OW 4924   4.154   1.612   0.994 -0.3618 -0.0713  0.0707
 1628SOL    HW1 4925   4.138   1.565   1.075  1.3167 -0.0483  0.4497
 1628SOL    HW2 4926   4.249   1.611   0.983 -0.4974  0.5193 -1.5421
 1629SOL     OW 4927   3.775   4.760   1.469  0.1060  0.4565 -0.3662
 1629SOL    HW1 4928   3.720   4.830   1.504 -0.2587  0.8032 -1.5880
 1629SOL    HW2 4929   3.846   4.805   1.424  0.6923  0.0191  0.1063
 1630SOL     OW 4930   4.346   4.620   1.172 -0.3095  0.0845 -0.0897
 1630SOL    HW1 4931   4.255   4.632   1.200 -0.4456 -1.2159  0.0895
 1630SOL    HW2 4932   4.394   4.604   1.254  0.4348  2.5410  0.0269
 1631SOL     OW 4933   4.145   5.076   1.384 -0.0486  0.4577 -0.1722
 1631SOL    HW1 4934   4.126   5.159   1.429 -1.9176  1.3321 -2.3914
 1631SOL    HW2 4935   4.214   5.097   1.322 -0.1688  0.2175 -0.3873
 1632SOL     OW 4936   4.197   1.873   1.380 -0.0731  0.1496 -0.0155
 1632SOL    HW1 4937   4.189   1.872   1.475 -3.0371  1.5732 -0.1527
 1632SOL    HW2 4938   4.119   1.829   1.348 -1.0167  2.8249 -1.7515
 1633SOL     OW 4939   3.953   1.425   0.065 -0.1382 -0.3668  0.2417
 1633SOL    HW1 4940   4.007   1.450  -0.010  1.0715  1.5874  1.6906
 1633SOL    HW2 4941   3.953   1.329   0.063  0.7183 -0.3830 -1.6307
 1634SOL     OW 4942   3.937   0.708   0.906 -0.2021  0.3422 -0.3404
 1634SOL    HW1 4943   3.871   0.639   0.896 -1.7556  1.1531  2.9470
 1634SOL    HW2 4944   4.014   0.662   0.938 -0.6536 -0.1125  0.1200
 1635SOL     OW 4945   4.178   2.070   1.126  0.1028 -0.1384 -0.7082
 1635SOL    HW1 4946   4.238   2.027   1.066  1.3392  0.7475 -0.1414
 1635SOL    HW2 4947   4.175   2.012   1.203 -0.1540 -0.4206 -0.9273
 1636SOL     OW 4948   4.055   5.061   1.810  0.0631 -0.3436 -0.1755
 1636SOL    HW1 4949   4.066   5.145   1.855 -1.3080 -0.1295 -0.2116
 1636SOL    HW2 4950   4.019   5.002   1.876  0.7280 -0.8263 -0.2354
 1637SOL     OW 4951   4.109   4.289   2.084 -0.2191  0.4943 -0.3340
 1637SOL    HW1 4952   4.075   4.374   2.111  0.5952  0.9776 -0.8157
 1637SOL    HW2 4953   4.080   4.280   1.993  0.3039  0.5813 -0.5119
 1638SOL     OW 4954   4.187   1.016   1.501  0.0974 -0.4275 -0.5443
 1638SOL    HW1 4955   4.233   0.960   1.564 -0.2079 -1.2552 -1.0415
 1638SOL    HW2 4956   4.256   1.070   1.463  0.4596 -0.7207 -0.3198
 1639SOL     OW 4957   4.067   4.691   1.229  0.1865  0.4520 -0.4673
 1639SOL    HW1 4958   3.993   4.637   1.203  0.4818 -0.8775  1.3121
 1639SOL    HW2 4959   4.028   4.770   1.266 -0.4035 -0.3785  0.7587
 1640SOL     OW 4960   4.024   1.103   1.241  0.0181 -0.3189 -0.3022
 1640SOL    HW1 4961   4.055   1.093   1.151 -1.5707  0.2918 -0.9579
 1640SOL    HW2 4962   4.087   1.162   1.282  1.2656 -1.3064 -0.7135
 1641SOL     OW 4963   3.926   4.545   0.517  0.1049  0.2751  0.1574
 1641SOL    HW1 4964   3.933   4.498   0.600 -1.6469  0.5701  0.5050
 1641SOL    HW2 4965   3.835   4.574   0.513 -0.2533 -0.8583 -2.4606
 1642SOL     OW 4966   3.860   5.318   1.872  0.2181  0.6242  0.1811
 1642SOL    HW1 4967   3.862   5.351   1.782 -1.3393 -0.0057 -0.1139
 1642SOL    HW2 4968   3.950   5.293   1.891  0.5266  0.6022 -1.2668
 1643SOL     OW 4969   4.157   0.895   0.998  0.4340 -0.0180 -0.4156
 1643SOL    HW1 4970   4.130   0.810   1.032  1.1797 -0.8103 -1.7364
 1643SOL    HW2 4971   4.239   0.915   1.044  1.2177 -0.8899 -1.3889
 1644SOL     OW 4972   3.491   4.897   1.253 -0.2818 -0.2868  0.5078
 1644SOL    HW1 4973   3.460   4.858   1.172  2.5964 -0.5720 -0.5704
 1644SOL    HW2 4974   3.459   4.839   1.322 -0.3559 -1.6917 -0.6693
 1645SOL     OW 4975   3.933   1.783   0.984  0.5345  0.0896 -0.1925
 1645SOL    HW1 4976   3.944   1.863   0.932  2.1520 -0.3578 -0.6115
 1645SOL    HW2 4977   4.022   1.750   0.995 -0.1341 -1.8918 -0.3885
 1646SOL     OW 4978   3.812   4.580   1.240 -0.1035  0.4352  0.0694
 1646SOL    HW1 4979   3.813   4.488   1.265 -0.9210  0.4224  0.0807
 1646SOL    HW2 4980   3.793   4.627   1.322 -2.2807  0.4281 -0.3812
 1647SOL     OW 4981   3.921   5.015   2.071  0.2436  0.6124  0.7295
 1647SOL    HW1 4982   3.969   5.015   2.154 -0.1097  0.0435  0.9399
 1647SOL    HW2 4983   3.902   5.107   2.054  0.9461  0.7983  0.9098
 1648SOL     OW 4984   4.486   0.621   0.435  0.3279 -0.2999  0.3805
 1648SOL    HW1 4985   4.512   0.601   0.345 -0.8796  0.7676 -0.2398
 1648SOL    HW2 4986   4.559   0.671   0.472  0.2901  0.3705 -0.4379
 1649SOL     OW 4987   3.671   1.545   1.845 -0.4564 -0.1337  0.2616
 1649SOL    HW1 4988   3.701   1.586   1.926  1.0690  0.5602 -0.6220
 1649SOL    HW2 4989   3.577   1.532   1.859 -0.5393  1.4510  1.5066
 1650SOL     OW 4990   3.780   0.586   0.523  0.4263 -0.2329  0.4071
 1650SOL    HW1 4991   3.750   0.496   0.506  0.0913  0.1767 -1.4468
 1650SOL    HW2 4992   3.707   0.628   0.567 -1.2207  0.2865 -2.5657
 1651SOL     OW 4993   3.432   5.164   1.270 -0.2521  0.3063 -0.1662
 1651SOL    HW1 4994   3.457   5.071   1.265 -2.1244 -0.1995 -0.9963
 1651SOL    HW2 4995   3.454   5.190   1.359 -1.6539 -1.5860  0.8098
 1652SOL     OW 4996   3.779   0.961   0.906 -0.4724  0.1195  0.1073
 1652SOL    HW1 4997   3.806   0.987   0.994 -0.2273  2.0799 -0.4813
 1652SOL    HW2 4998   3.838   0.889   0.883  2.1668  2.1097  0.1367
 1653SOL     OW 4999   3.461   1.893   1.893  0.3147  0.2668  0.1739
 1653SOL    HW1 5000   3.436   1.806   1.863  0.6138 -0.4352  1.8425
 1653SOL    HW2 5001   3.557   1.890   1.896  0.3299  0.6864  0.1548
 1654SOL     OW 5002   4.028   4.767   0.901 -0.1587 -0.7277 -0.3195
 1654SOL    HW1 5003   3.943   4.748   0.941 -0.5569  1.3656 -0.0370
 1654SOL    HW2 5004   4.080   4.688   0.916 -1.0742 -0.9416  2.2244
 1655SOL     OW 5005   3.960   5.467   1.627 -0.3821 -0.2134 -0.0027
 1655SOL    HW1 5006   3.919   5.505   1.549  0.1935 -3.6325 -2.2164
 1655SOL    HW2 5007   4.027   5.409   1.592 -0.5195 -2.4280  3.0279
 1656SOL     OW 5008   4.224   1.719   0.541  0.0090  0.0504  0.1552
 1656SOL    HW1 5009   4.229   1.797   0.596 -2.9637  1.1359 -0.9250
 1656SOL    HW2 5010   4.283   1.738   0.468 -0.3102  1.0892  0.1535
 1657SOL     OW 5011   3.668   5.475   1.960  0.2756  0.0426  0.0119
 1657SOL    HW1 5012   3.663   5.539   1.889  0.3562 -1.3517 -1.3266
 1657SOL    HW2 5013   3.742   5.419   1.935 -0.7208 -1.4654  0.3203
 1658SOL     OW 5014   4.082   1.992   1.922 -0.9003 -0.2193 -0.0588
 1658SOL    HW1 5015   3.989   1.975   1.929 -0.9121 -0.5295 -0.8751
 1658SOL    HW2 5016   4.093   2.034   1.836 -0.4446  0.9238  0.5281
 1659SOL     OW 5017   2.573   3.674   2.917  0.3765 -0.2209 -0.2389
 1659SOL    HW1 5018   2.579   3.646   2.826  2.4767  2.1256 -0.9349
 1659SOL    HW2 5019   2.489   3.720   2.922 -0.2716 -1.3283 -0.6691
 1660SOL     OW 5020   4.093   1.550   1.590  0.5364 -0.0518  0.1145
 1660SOL    HW1 5021   4.188   1.560   1.595  0.4637  1.6580 -0.8917
 1660SOL    HW2 5022   4.059   1.617   1.649 -0.0531 -1.0447  0.9178
 1661SOL     OW 5023   3.939   1.538   0.771 -0.2779 -0.0037 -0.1976
 1661SOL    HW1 5024   3.875   1.487   0.821  1.0209 -0.7796  0.7489
 1661SOL    HW2 5025   3.951   1.618   0.823 -0.8517  0.3831 -0.6498
 1662SOL     OW 5026   4.509   1.232   1.545 -0.2550 -0.1807  0.2171
 1662SOL    HW1 5027   4.492   1.231   1.639 -1.0313  0.0046  0.0842
 1662SOL    HW2 5028   4.604   1.241   1.538 -0.2189  0.0746  0.9797
 1663SOL     OW 5029   4.072   0.519   0.634  0.1934 -0.3654  0.3502
 1663SOL    HW1 5030   3.994   0.575   0.639  0.1504 -0.4179  0.2704
 1663SOL    HW2 5031   4.082   0.485   0.723  0.8980  0.6798  0.6909
 1664SOL     OW 5032   3.715   5.052   1.219 -0.0137 -0.0006  0.1012
 1664SOL    HW1 5033   3.715   5.026   1.127  1.4032  1.2226 -0.2721
 1664SOL    HW2 5034   3.654   4.991   1.261 -0.8675 -0.4237 -1.6766
 1665SOL     OW 5035   3.542   0.905   0.195 -0.1500  0.0575 -0.1766
 1665SOL    HW1 5036   3.530   0.968   0.124  1.6482  1.9288  1.0473
 1665SOL    HW2 5037   3.571   0.825   0.152  0.9822  1.1807 -1.5798
 1666SOL     OW 5038   3.743   4.725   2.341 -0.5088 -0.1982 -0.0372
 1666SOL    HW1 5039   3.683   4.780   2.390  1.1638  0.5178  1.3014
 1666SOL    HW2 5040   3.761   4.651   2.399  0.8698  0.2503  0.1485
 1667SOL     OW 5041   3.718   4.925   2.999  0.3815  0.0083  0.1522
 1667SOL    HW1 5042   3.682   4.899   2.914  0.2862 -0.2334  0.2673
 1667SOL    HW2 5043   3.663   4.881   3.063  2.2759 -2.2869  0.3234
 1668SOL     OW 5044   3.636   4.807   2.766 -0.1868 -0.4240 -0.2201
 1668SOL    HW1 5045   3.598   4.825   2.680 -0.5049 -3.9140 -0.9617
 1668SOL    HW2 5046   3.730   4.803   2.750  0.1273  2.4037  0.4223
 1669SOL     OW 5047   4.174   5.639   2.289 -0.2051  0.4112  0.0276
 1669SOL    HW1 5048   4.154   5.679   2.204 -1.0070 -0.2400 -0.1058
 1669SOL    HW2 5049   4.240   5.573   2.269  0.3842  0.9819  0.0845
 1670SOL     OW 5050   4.184   5.760   2.516 -0.7604  0.1132 -0.6036
 1670SOL    HW1 5051   4.109   5.816   2.496 -1.5833 -1.6556 -2.8355
 1670SOL    HW2 5052   4.200   5.710   2.436  1.8813 -0.6745  0.2872
 1671SOL     OW 5053   3.901   2.061   2.539 -0.2381  0.1987  0.0971
 1671SOL    HW1 5054   3.809   2.047   2.514  0.2297 -1.8385 -0.7132
 1671SOL    HW2 5055   3.946   2.076   2.456  0.4095 -0.4277  0.3286
 1672SOL     OW 5056   3.669   1.945   2.208  0.0143  0.5026  0.2478
 1672SOL    HW1 5057   3.685   1.942   2.113  0.5415 -2.4608  0.3185
 1672SOL    HW2 5058   3.574   1.947   2.216 -0.0294  2.4658 -0.2885
 1673SOL     OW 5059   3.847   5.636   2.790  0.0765 -0.1694  0.2514
 1673SOL    HW1 5060   3.794   5.570   2.834 -0.5583 -0.5393 -1.0032
 1673SOL    HW2 5061   3.801   5.651   2.707  2.7586 -1.7410 -1.6928
 1674SOL     OW 5062   4.111   5.359   2.711 -0.3462 -0.5317  0.5545
 1674SOL    HW1 5063   4.033   5.336   2.662  0.1277 -1.3874  0.1789
 1674SOL    HW2 5064   4.130   5.282   2.765  0.3574 -0.4303  0.4715
 1675SOL     OW 5065   3.388   1.611   1.840 -0.3181 -0.2532  0.1323
 1675SOL    HW1 5066   3.297   1.639   1.833 -0.2814  0.1135  0.9256
 1675SOL    HW2 5067   3.416   1.595   1.750 -1.0273  0.0760 -0.1515
 1676SOL     OW 5068   3.949   5.508   2.320  0.1644  0.3579  0.4857
 1676SOL    HW1 5069   4.025   5.566   2.327  0.0726  0.3097  2.8207
 1676SOL    HW2 5070   3.887   5.558   2.267  1.2891  0.9977 -0.2816
 1677SOL     OW 5071   4.182   5.107   2.828 -0.2119 -0.3574 -0.2099
 1677SOL    HW1 5072   4.175   5.013   2.810  0.6053 -0.3298 -0.6996
 1677SOL    HW2 5073   4.122   5.122   2.902 -0.3994 -1.2438 -0.1744
 1678SOL     OW 5074   4.547   4.733   1.613  0.5998 -0.1353  0.1572
 1678SOL    HW1 5075   4.627   4.776   1.643  0.1076 -0.5637  2.2400
 1678SOL    HW2 5076   4.561   4.640   1.630  0.4952 -0.4824 -1.5296
 1679SOL     OW 5077   1.917   3.762   0.064  0.6727  0.4230  0.2326
 1679SOL    HW1 5078   1.987   3.816   0.100  1.5844  0.0801 -0.9897
 1679SOL    HW2 5079   1.960   3.703   0.002 -0.4746 -0.8618  0.5947
 1680SOL     OW 5080   3.582   5.474   2.240  0.0222  0.1092  0.2237
 1680SOL    HW1 5081   3.625   5.477   2.154  0.4432  0.4781  0.4353
 1680SOL    HW2 5082   3.602   5.387   2.274 -0.3085 -0.1070 -0.1344
 1681SOL     OW 5083   4.033   5.264   2.222 -0.5812  0.0560 -0.1137
 1681SOL    HW1 5084   4.060   5.208   2.294  1.2589  0.5579 -0.3649
 1681SOL    HW2 5085   4.008   5.347   2.262 -2.0051 -0.4660  0.1350
 1682SOL     OW 5086   4.594   4.500   1.794  0.3523  0.4731  0.4154
 1682SOL    HW1 5087   4.595   4.406   1.782 -0.0969  0.4106  0.8536
 1682SOL    HW2 5088   4.686   4.524   1.802  0.5298  0.2230 -0.8109
 1683SOL     OW 5089   4.683   4.869   2.566 -0.0549 -0.7117 -0.0782
 1683SOL    HW1 5090   4.603   4.911   2.537  0.1526 -1.4104 -1.8007
 1683SOL    HW2 5091   4.663   4.775   2.567  0.6646 -0.8788 -0.2932
 1684SOL     OW 5092   4.446   4.798   2.228 -0.0095  0.0238 -0.5870
 1684SOL    HW1 5093   4.451   4.704   2.247  0.4500  0.2912  0.7035
 1684SOL    HW2 5094   4.408   4.802   2.140  1.4973 -1.4330 -1.3793
 1685SOL     OW 5095   3.929   5.893   2.495 -0.0000  0.4351  0.0080
 1685SOL    HW1 5096   3.858   5.952   2.470  0.6125  0.3445 -2.1366
 1685SOL    HW2 5097   3.884   5.819   2.536 -1.0246  0.9787 -0.0809
 1686SOL     OW 5098   2.081   2.777   0.524 -0.5040  0.2655 -0.3047
 1686SOL    HW1 5099   2.057   2.709   0.462 -1.2619  0.3819 -0.1413
 1686SOL    HW2 5100   2.177   2.776   0.524 -0.4274 -2.2629  1.2764
 1687SOL     OW 5101   3.675   5.453   2.882 -0.2411  0.1673  0.1805
 1687SOL    HW1 5102   3.714   5.368   2.863 -0.2690  0.1440  0.2263
 1687SOL    HW2 5103   3.587   5.448   2.844 -0.9257 -0.4746  1.7524
 1688SOL     OW 5104   3.812   5.678   2.133  0.0982 -0.5150 -0.5129
 1688SOL    HW1 5105   3.814   5.772   2.116  1.6746 -0.4568 -0.1666
 1688SOL    HW2 5106   3.742   5.644   2.077 -0.7957  0.9184 -0.2953
 1689SOL     OW 5107   4.461   4.920   3.063 -0.2489  0.2298  0.2683
 1689SOL    HW1 5108   4.484   4.982   3.133 -0.0084  0.4274  0.0142
 1689SOL    HW2 5109   4.390   4.868   3.100  1.5528 -1.3980  1.6541
 1690SOL     OW 5110   1.900   3.326   0.073 -0.2582  0.5760  0.5165
 1690SOL    HW1 5111   1.870   3.408   0.111 -2.3143  0.1047  0.0247
 1690SOL    HW2 5112   1.903   3.343  -0.022 -1.2005 -0.0269  0.3620
 1691SOL     OW 5113   4.111   5.587   2.854 -0.3708 -0.4540 -0.1357
 1691SOL    HW1 5114   4.106   5.508   2.801 -1.5962 -0.5697  0.1166
 1691SOL    HW2 5115   4.038   5.642   2.822 -0.9825 -0.4251  1.2310
 1692SOL     OW 5116   4.763   4.837   2.859 -0.6745  0.5973 -0.5495
 1692SOL    HW1 5117   4.740   4.878   2.775 -1.8457  0.0545 -0.5144
 1692SOL    HW2 5118   4.727   4.897   2.925 -1.7878 -0.1136 -0.4875
 1693SOL     OW 5119   3.816   5.168   2.937  0.1956  0.4844 -0.9766
 1693SOL    HW1 5120   3.889   5.175   2.998  0.1263 -0.6388 -0.7475
 1693SOL    HW2 5121   3.780   5.081   2.952 -1.1745  0.9999 -1.1187
 1694SOL     OW 5122   4.132   4.842   2.830  0.0332 -0.2349 -0.1067
 1694SOL    HW1 5123   4.045   4.812   2.860  1.1098 -0.3295  3.3571
 1694SOL    HW2 5124   4.172   4.763   2.794 -1.0833 -0.3157 -1.2596
 1695SOL     OW 5125   3.424   1.657   2.149 -0.3986  0.0680  0.2511
 1695SOL    HW1 5126   3.399   1.652   2.057 -2.6856 -1.6531  0.8678
 1695SOL    HW2 5127   3.443   1.566   2.173 -0.0978  0.4581  1.5458
 1696SOL     OW 5128   3.749   1.768   2.459  0.5507  0.1788  0.6886
 1696SOL    HW1 5129   3.751   1.833   2.389  2.6345 -0.7399 -0.1758
 1696SOL    HW2 5130   3.661   1.731   2.454  0.3155  0.8427 -0.7607
 1697SOL     OW 5131   3.873   5.197   2.672  0.4919 -0.0517  0.2430
 1697SOL    HW1 5132   3.858   5.184   2.765 -1.0843  1.9874  0.3467
 1697SOL    HW2 5133   3.794   5.242   2.641  1.6023  0.6400 -1.7630
 1698SOL     OW 5134   4.460   4.973   2.433 -0.2148  0.2652  0.0082
 1698SOL    HW1 5135   4.456   4.906   2.365  1.3950  0.0159  0.1323
 1698SOL    HW2 5136   4.434   5.053   2.389  1.0157  0.1472 -0.9859
 1699SOL     OW 5137   3.877   4.714   2.089  0.3758 -0.3643  0.7434
 1699SOL    HW1 5138   3.905   4.803   2.067 -0.3933 -0.0820  0.8621
 1699SOL    HW2 5139   3.848   4.720   2.180 -0.2579 -0.5876  0.5657
 1700SOL     OW 5140   4.226   4.985   2.578 -0.2971  0.2247  0.1712
 1700SOL    HW1 5141   4.312   4.981   2.537 -0.6433 -0.5349 -0.5118
 1700SOL    HW2 5142   4.228   5.065   2.630  0.9056  0.0790  0.3821
 1701SOL     OW 5143   4.514   1.685   2.153  0.0046  0.4586  0.4472
 1701SOL    HW1 5144   4.532   1.594   2.174  0.3942 -0.1583 -2.2045
 1701SOL    HW2 5145   4.419   1.693   2.158 -0.1427 -0.4607 -0.4975
 1702SOL     OW 5146   3.765   1.635   2.084 -0.0389  0.3279  0.1116
 1702SOL    HW1 5147   3.743   1.651   2.175  2.3551  0.8735  0.6582
 1702SOL    HW2 5148   3.769   1.723   2.044  1.5417  0.3086  0.1790
 1703SOL     OW 5149   1.960   2.112  -0.020 -0.1221 -0.5706 -0.9876
 1703SOL    HW1 5150   1.960   2.063   0.062  1.5043  2.0365  0.7154
 1703SOL    HW2 5151   1.875   2.092  -0.060 -1.0151 -1.8527  1.3752
 1704SOL     OW 5152   3.706   4.625   1.874  0.0881 -0.1019 -0.0630
 1704SOL    HW1 5153   3.646   4.572   1.927 -0.5092 -2.9375 -3.2251
 1704SOL    HW2 5154   3.744   4.687   1.936 -2.4104 -1.4112  3.0863
 1705SOL     OW 5155   3.935   4.453   2.328  1.0394 -0.1949 -0.0118
 1705SOL    HW1 5156   3.927   4.384   2.394  0.2315 -1.5698 -1.4833
 1705SOL    HW2 5157   4.020   4.495   2.347  1.7304 -1.8346  0.6880
 1706SOL     OW 5158   3.487   5.714   2.541 -0.4901 -0.5250  0.1207
 1706SOL    HW1 5159   3.515   5.726   2.632  0.4338 -0.5195 -0.1526
 1706SOL    HW2 5160   3.484   5.803   2.506  0.7316 -0.6297 -0.2936
 1707SOL     OW 5161   4.041   4.987   2.351 -0.2441 -0.0648  0.3034
 1707SOL    HW1 5162   4.065   4.895   2.338 -0.4541 -0.1112  0.2372
 1707SOL    HW2 5163   4.098   5.017   2.421 -3.0662 -1.4658  3.5068
 1708SOL     OW 5164   2.272   2.873   0.240 -0.5538 -0.0496  0.2457
 1708SOL    HW1 5165   2.306   2.960   0.261  1.2228 -0.8999  1.1965
 1708SOL    HW2 5166   2.177   2.883   0.240 -0.3896  2.1042 -0.7767
 1709SOL     OW 5167   3.654   5.052   2.100  0.1604 -0.9142  0.0307
 1709SOL    HW1 5168   3.735   5.003   2.092  0.5425 -0.2376 -0.4261
 1709SOL    HW2 5169   3.592   5.006   2.044  1.2978  0.6497 -2.7369
 1710SOL     OW 5170   4.090   2.239   0.795 -0.0156  0.1325 -0.1072
 1710SOL    HW1 5171   4.162   2.254   0.857  0.9320 -2.5007 -0.4614
 1710SOL    HW2 5172   4.125   2.266   0.710 -0.3047  1.0732  0.0668
 1711SOL     OW 5173   3.627   2.011   0.457  0.0339 -0.0475  0.4021
 1711SOL    HW1 5174   3.532   2.000   0.465 -0.1996  2.0668  1.0315
 1711SOL    HW2 5175   3.638   2.058   0.374  0.3101  1.7161  1.3976
 1712SOL     OW 5176   4.561   2.791   0.754 -0.1770 -0.3383 -0.4780
 1712SOL    HW1 5177   4.479   2.840   0.743  0.1766  0.4679  0.4222
 1712SOL    HW2 5178   4.624   2.838   0.700  0.3848  0.7775  1.0863
 1713SOL     OW 5179   4.147   3.234   1.015 -0.2126 -0.3440 -0.2758
 1713SOL    HW1 5180   4.059   3.204   1.041 -0.4995 -0.6979 -1.5657
 1713SOL    HW2 5181   4.203   3.159   1.030 -0.0599 -0.0166  0.8507
 1714SOL     OW 5182   3.863   2.156   1.782 -0.0839 -0.0109  0.0461
 1714SOL    HW1 5183   3.938   2.174   1.840  1.0429 -0.4958 -1.2013
 1714SOL    HW2 5184   3.835   2.068   1.805  0.0800 -0.0399  0.1367
 1715SOL     OW 5185   3.816   3.685   0.536 -0.1489 -0.4028 -0.1444
 1715SOL    HW1 5186   3.803   3.778   0.553  0.6676 -0.2383 -0.3647
 1715SOL    HW2 5187   3.848   3.681   0.446 -2.0844 -1.0708 -0.8624
 1716SOL     OW 5188   3.525   3.093   0.356 -0.4990  0.0115 -0.0936
 1716SOL    HW1 5189   3.534   3.037   0.279  2.3923  0.5785 -0.3104
 1716SOL    HW2 5190   3.539   3.034   0.431  1.6268  0.2042 -0.2822
 1717SOL     OW 5191   4.081   2.680   0.803  0.5252 -0.0363  0.0594
 1717SOL    HW1 5192   4.177   2.682   0.809  0.6412 -0.8957 -1.2070
 1717SOL    HW2 5193   4.054   2.625   0.877  0.8623  1.5217  1.4097
 1718SOL     OW 5194   3.544   2.377   0.462 -0.7477 -0.5789 -0.3352
 1718SOL    HW1 5195   3.610   2.316   0.495 -0.9064 -1.4057 -1.4749
 1718SOL    HW2 5196   3.547   2.451   0.523  2.7582  0.4426 -1.4786
 1719SOL     OW 5197   3.940   3.067   1.595 -0.3709  0.1247 -0.4593
 1719SOL    HW1 5198   3.974   3.156   1.585  0.7311 -0.2234 -0.0031
 1719SOL    HW2 5199   4.008   3.011   1.558 -0.6639 -0.5743  0.0345
 1720SOL     OW 5200   3.883   2.777   1.285  0.7497  0.3611  0.1698
 1720SOL    HW1 5201   3.825   2.848   1.313  1.4945  0.7288  0.8282
 1720SOL    HW2 5202   3.842   2.741   1.206 -0.0584  0.9916  0.2951
 1721SOL     OW 5203   4.284   2.111   2.046  0.4163 -0.8862  0.6641
 1721SOL    HW1 5204   4.323   2.053   2.112  1.0795 -0.6044  0.5313
 1721SOL    HW2 5205   4.214   2.060   2.007  0.4110 -1.2761  1.1752
 1722SOL     OW 5206   3.647   2.746   0.739  0.1293  0.2002  0.6814
 1722SOL    HW1 5207   3.665   2.800   0.816 -1.8786 -0.2590  1.5265
 1722SOL    HW2 5208   3.578   2.686   0.767  1.4312 -2.0300 -0.6034
 1723SOL     OW 5209   3.842   3.649   1.830 -0.8365  0.6505 -0.2472
 1723SOL    HW1 5210   3.795   3.716   1.779 -0.8500  0.6297 -0.2624
 1723SOL    HW2 5211   3.773   3.589   1.859 -1.0992  1.7016  1.4256
 1724SOL     OW 5212   2.682   4.099   2.914  0.3320 -0.3734  0.1390
 1724SOL    HW1 5213   2.750   4.129   2.975  1.3939  0.8193 -1.5490
 1724SOL    HW2 5214   2.710   4.012   2.888  0.2081 -0.6379  0.8665
 1725SOL     OW 5215   4.284   1.955   0.656  0.8267  0.5964  0.2971
 1725SOL    HW1 5216   4.363   1.985   0.701  1.4932  0.0436 -0.4902
 1725SOL    HW2 5217   4.305   1.960   0.563 -0.0616  0.4239  0.0723
 1726SOL     OW 5218   0.447   3.758   0.525 -0.3708  0.8170  0.0529
 1726SOL    HW1 5219   0.465   3.747   0.432  0.0295  1.5911  0.0240
 1726SOL    HW2 5220   0.358   3.727   0.537 -1.0402  2.2746 -0.9168
 1727SOL     OW 5221   4.336   2.997   1.844  0.1684 -0.7372  0.3054
 1727SOL    HW1 5222   4.371   2.930   1.902  2.0539  0.6367  0.8338
 1727SOL    HW2 5223   4.288   3.056   1.903 -0.0073 -0.6833  0.1083
 1728SOL     OW 5224   4.270   2.360   1.317  0.3058  0.1311 -0.1845
 1728SOL    HW1 5225   4.206   2.288   1.309  0.7099 -0.2047 -0.4429
 1728SOL    HW2 5226   4.217   2.439   1.307 -0.1887 -0.1184  0.3824
 1729SOL     OW 5227   3.664   3.199   0.982 -0.0533  0.4475 -0.1653
 1729SOL    HW1 5228   3.618   3.146   1.047  0.9638  0.4857  0.6174
 1729SOL    HW2 5229   3.757   3.189   1.005  0.2297  1.6261 -0.7265
 1730SOL     OW 5230   6.116   4.586   3.061  0.6390  0.3242  0.1626
 1730SOL    HW1 5231   6.204   4.625   3.060  1.1072 -0.7086 -0.6474
 1730SOL    HW2 5232   6.069   4.633   2.992  1.4691 -1.0635 -1.4212
 1731SOL     OW 5233   6.186   3.970   2.946 -0.3714  0.7125  0.0043
 1731SOL    HW1 5234   6.162   4.048   2.996 -0.4044  0.6588  0.0734
 1731SOL    HW2 5235   6.104   3.920   2.938 -0.0498 -0.0873  1.3280
 1732SOL     OW 5236   4.222   2.338   0.267 -0.2134  0.2887  0.4919
 1732SOL    HW1 5237   4.215   2.271   0.199  0.8368  0.2680  0.3926
 1732SOL    HW2 5238   4.173   2.412   0.233  2.3101  1.2006 -1.4671
 1733SOL     OW 5239   4.552   2.747   0.301  0.3035 -0.1208 -0.7231
 1733SOL    HW1 5240   4.587   2.830   0.332 -1.5206  0.4185  0.0313
 1733SOL    HW2 5241   4.624   2.685   0.312  1.7753  1.3800 -1.5335
 1734SOL     OW 5242   4.485   2.934   1.640 -0.0934 -0.0042  0.5833
 1734SOL    HW1 5243   4.428   2.894   1.575 -0.3270  2.5405 -0.9155
 1734SOL    HW2 5244   4.428   2.948   1.716 -0.8103  0.1927  0.0280
 1735SOL     OW 5245   4.383   2.201   0.818  0.5682 -0.5314 -0.2392
 1735SOL    HW1 5246   4.442   2.126   0.831 -1.2935 -1.7693  1.9188
 1735SOL    HW2 5247   4.407   2.263   0.887 -0.1313 -0.7228  0.1890
 1736SOL     OW 5248   4.490   2.812   1.116  0.0946  0.5246 -0.0304
 1736SOL    HW1 5249   4.579   2.783   1.097 -0.2358 -1.2765  0.9359
 1736SOL    HW2 5250   4.500   2.878   1.185  0.6603  0.0718  0.3244
 1737SOL     OW 5251   4.019   3.349   1.490 -0.1878 -0.0079 -0.5109
 1737SOL    HW1 5252   4.019   3.437   1.526 -1.4267  0.2257 -1.0558
 1737SOL    HW2 5253   4.021   3.361   1.395  3.7259 -0.6119 -0.6832
 1738SOL     OW 5254   3.877   2.353   0.553 -0.3070 -0.0926 -0.2910
 1738SOL    HW1 5255   3.972   2.356   0.567 -0.5066 -0.5657  1.4728
 1738SOL    HW2 5256   3.853   2.443   0.530  0.5075  0.1633 -0.1573
 1739SOL     OW 5257   4.396   2.541   0.399 -0.3291 -0.2246  0.1959
 1739SOL    HW1 5258   4.423   2.621   0.353 -0.5382 -0.8331 -1.0251
 1739SOL    HW2 5259   4.390   2.475   0.330  1.0540 -1.6196  1.3519
 1740SOL     OW 5260   4.017   3.415   1.220  0.6233  0.2399 -0.4089
 1740SOL    HW1 5261   3.969   3.435   1.140 -0.4586  0.6039  0.3150
 1740SOL    HW2 5262   4.072   3.492   1.234 -0.0688  0.7014 -0.1705
 1741SOL     OW 5263   4.138   2.824   1.926 -0.5177  0.4877 -0.1974
 1741SOL    HW1 5264   4.190   2.895   1.889 -0.9713 -0.1667 -2.1848
 1741SOL    HW2 5265   4.077   2.868   1.985 -0.7245  1.7672 -1.3203
 1742SOL     OW 5266   4.114   2.587   1.304  0.3582 -0.9146  0.2115
 1742SOL    HW1 5267   4.024   2.618   1.318  0.2192  0.2440 -2.4801
 1742SOL    HW2 5268   4.169   2.655   1.343  0.0146  0.6370 -1.8305
 1743SOL     OW 5269   4.104   2.955   1.396 -0.1511  0.2273  0.2396
 1743SOL    HW1 5270   4.030   2.896   1.380  0.3358 -0.4855  0.5904
 1743SOL    HW2 5271   4.178   2.897   1.412  0.2075  0.9305  1.1856
 1744SOL     OW 5272   4.413   2.395   0.989 -0.8805 -0.1964 -0.8110
 1744SOL    HW1 5273   4.390   2.365   1.077 -0.9824  1.9248 -0.0626
 1744SOL    HW2 5274   4.378   2.484   0.984 -0.3749 -0.0665 -2.8033
 1745SOL     OW 5275   3.772   3.018   1.318 -0.0356 -0.4119 -0.0353
 1745SOL    HW1 5276   3.697   3.077   1.307 -0.3773 -0.9460 -0.6474
 1745SOL    HW2 5277   3.827   3.061   1.384  0.7141  1.6003 -1.8418
 1746SOL     OW 5278   3.933   1.910   0.557 -0.1588 -0.5100  0.2856
 1746SOL    HW1 5279   3.940   1.988   0.501 -1.0872 -0.2375  0.5178
 1746SOL    HW2 5280   3.966   1.939   0.642  0.9461 -0.8285 -0.0269
 1747SOL     OW 5281   4.429   2.856   2.065 -0.1827 -0.2628 -0.2945
 1747SOL    HW1 5282   4.499   2.793   2.047  0.6312 -0.1384  2.0677
 1747SOL    HW2 5283   4.391   2.826   2.148 -2.0241  0.4842 -0.8164
 1748SOL     OW 5284   4.037   2.500   1.055  0.1184 -0.0270  0.7897
 1748SOL    HW1 5285   4.009   2.413   1.080  1.4596 -1.1994 -1.4473
 1748SOL    HW2 5286   4.092   2.530   1.127  2.1159 -2.3485  0.3757
 1749SOL     OW 5287   4.168   2.377   0.542 -0.5645 -0.5737 -0.0098
 1749SOL    HW1 5288   4.177   2.342   0.454  0.9707 -1.0685  0.3141
 1749SOL    HW2 5289   4.193   2.469   0.535 -0.6550 -0.5577 -0.1248
 1750SOL     OW 5290   4.238   3.770   1.028  0.1444  0.2538 -0.2894
 1750SOL    HW1 5291   4.245   3.862   1.054  0.7136 -0.1740  1.1265
 1750SOL    HW2 5292   4.281   3.767   0.942  0.3210  1.2632 -0.2528
 1751SOL     OW 5293   3.731   2.325   1.215  0.2633  0.4277 -0.6220
 1751SOL    HW1 5294   3.704   2.254   1.274 -0.7033  1.4715  0.2277
 1751SOL    HW2 5295   3.806   2.289   1.168  0.6622 -0.6676  0.7776
 1752SOL     OW 5296   4.097   2.576   1.610 -0.0085  0.3778 -0.1703
 1752SOL    HW1 5297   4.160   2.631   1.656  1.5715 -0.7087 -0.9472
 1752SOL    HW2 5298   4.141   2.492   1.600 -1.4439 -0.3017 -1.0942
 1753SOL     OW 5299   0.085   2.112   0.176 -0.4682  0.0200 -0.4303
 1753SOL    HW1 5300   0.125   2.058   0.108 -1.0987 -1.7305  0.5239
 1753SOL    HW2 5301   0.004   2.145   0.137 -1.2425 -1.6373 -0.2949
 1754SOL     OW 5302   4.083   3.617   1.953 -0.5513  0.1814  0.4263
 1754SOL    HW1 5303   4.000   3.626   1.906  0.3077  0.5310 -1.0580
 1754SOL    HW2 5304   4.105   3.706   1.980  0.9984  0.6662 -2.1562
 1755SOL     OW 5305   6.423   4.411   3.068  0.4418  0.1707 -0.0925
 1755SOL    HW1 5306   6.350   4.375   3.017  0.3273 -0.5990  0.5769
 1755SOL    HW2 5307   6.499   4.405   3.010  0.2562 -0.4143 -0.2810
 1756SOL     OW 5308   4.315   2.761   1.477 -0.1963  0.3638 -0.0875
 1756SOL    HW1 5309   4.319   2.717   1.561 -0.3853 -1.6787 -1.0811
 1756SOL    HW2 5310   4.380   2.716   1.423 -1.9948 -0.3244 -1.8388
 1757SOL     OW 5311   3.904   3.100   1.109  0.1375  0.0380  0.4833
 1757SOL    HW1 5312   3.870   3.073   1.194 -0.8608 -1.6284 -0.3935
 1757SOL    HW2 5313   3.920   3.018   1.062 -0.5343  0.9306 -1.3944
 1758SOL     OW 5314   4.161   4.016   2.181 -0.1606 -0.2409 -0.1021
 1758SOL    HW1 5315   4.115   3.939   2.215  1.1747 -0.5499  1.0948
 1758SOL    HW2 5316   4.252   3.987   2.172  0.0232  0.6479 -1.4636
 1759SOL     OW 5317   3.830   2.179   0.759  0.7899  0.3588  0.1422
 1759SOL    HW1 5318   3.816   2.212   0.671 -0.5002 -0.0984  0.1561
 1759SOL    HW2 5319   3.908   2.225   0.790  0.2289  1.8631 -0.5797
 1760SOL     OW 5320   4.248   3.196   1.458  0.1931 -0.0014  0.5607
 1760SOL    HW1 5321   4.193   3.122   1.432  0.7070 -0.1032 -0.2648
 1760SOL    HW2 5322   4.189   3.271   1.458 -0.1028 -0.2308  0.3587
 1761SOL     OW 5323   3.862   2.991   0.691  0.0448 -0.3605  0.1217
 1761SOL    HW1 5324   3.872   2.966   0.599 -1.2601  2.0740 -0.7813
 1761SOL    HW2 5325   3.773   3.027   0.696  0.4916  0.5663  2.0775
 1762SOL     OW 5326   3.549   3.153   1.442  0.0402 -0.4153  0.2780
 1762SOL    HW1 5327   3.460   3.122   1.459  0.2331 -1.0995  0.0440
 1762SOL    HW2 5328   3.589   3.160   1.529 -0.5459  0.8465  0.4680
 1763SOL     OW 5329   3.617   3.225   1.701 -0.2789 -0.1664 -0.0288
 1763SOL    HW1 5330   3.687   3.168   1.733 -1.2553 -0.1031  2.3718
 1763SOL    HW2 5331   3.640   3.312   1.734 -0.9536  0.0449 -0.1084
 1764SOL     OW 5332   4.247   3.171   2.031 -0.4080  0.3625  0.5863
 1764SOL    HW1 5333   4.250   3.140   2.121  0.1877  0.8215  0.7296
 1764SOL    HW2 5334   4.249   3.267   2.038 -0.5187  0.4035  0.0953
 1765SOL     OW 5335   3.881   2.688   0.607  0.1792  0.3067  0.0260
 1765SOL    HW1 5336   3.806   2.727   0.653 -0.3016 -1.1674  0.5267
 1765SOL    HW2 5337   3.954   2.696   0.668 -0.7740 -2.9953  1.8340
 1766SOL     OW 5338   4.735   3.067   1.506 -0.3097  0.1746  0.0113
 1766SOL    HW1 5339   4.644   3.054   1.531 -0.4430 -1.6602 -1.2062
 1766SOL    HW2 5340   4.764   3.142   1.558 -2.9136  1.7608 -0.6277
 1767SOL     OW 5341   0.314   2.217   0.359 -0.6720  0.2026  0.4685
 1767SOL    HW1 5342   0.235   2.196   0.308  0.5074 -0.0251 -1.3433
 1767SOL    HW2 5343   0.280   2.257   0.439 -2.6216  0.2765 -0.3293
 1768SOL     OW 5344   3.823   2.587   1.488 -0.7709 -0.3852 -0.1960
 1768SOL    HW1 5345   3.855   2.652   1.426  1.8062 -0.1913  1.1566
 1768SOL    HW2 5346   3.886   2.591   1.561 -3.1329 -1.1763  2.0568
 1769SOL     OW 5347   3.919   2.763   0.325 -0.1458 -0.3321  0.1793
 1769SOL    HW1 5348   3.942   2.852   0.351 -0.8263 -0.3169  0.7798
 1769SOL    HW2 5349   3.860   2.732   0.394 -0.8561 -0.8199 -0.6151
 1770SOL     OW 5350   4.047   2.128   2.304  0.4132  0.2626  0.1447
 1770SOL    HW1 5351   4.013   2.217   2.300  0.7137  0.4223  0.8485
 1770SOL    HW2 5352   4.036   2.093   2.216 -3.2733 -0.3465  0.6730
 1771SOL     OW 5353   3.864   2.355   2.642  0.0320  0.3205 -0.0820
 1771SOL    HW1 5354   3.920   2.286   2.607 -1.9239 -0.7863 -1.2186
 1771SOL    HW2 5355   3.865   2.423   2.574 -0.1698  0.1998 -0.2072
 1772SOL     OW 5356   3.526   2.669   2.345 -0.1111  0.1254 -0.0033
 1772SOL    HW1 5357   3.518   2.684   2.251  2.2625 -0.4477 -0.3658
 1772SOL    HW2 5358   3.494   2.580   2.357  0.7060 -0.2456 -0.4908
 1773SOL     OW 5359   4.616   2.895   2.793 -0.0502  0.3607  0.4094
 1773SOL    HW1 5360   4.549   2.957   2.823 -0.6258 -0.6849  1.3507
 1773SOL    HW2 5361   4.639   2.925   2.705 -1.7616  0.7435  0.0582
 1774SOL     OW 5362   3.947   3.136   2.992  0.1092  0.0351 -0.0437
 1774SOL    HW1 5363   3.894   3.106   2.918  1.3399 -1.9417 -0.1868
 1774SOL    HW2 5364   3.963   3.229   2.974  0.1452 -0.3363 -2.1431
 1775SOL     OW 5365   3.939   3.502   2.151 -0.1889 -0.5254  0.3649
 1775SOL    HW1 5366   4.002   3.530   2.085  1.0839  0.0532  1.7787
 1775SOL    HW2 5367   3.955   3.559   2.226 -0.4284 -2.2361  1.8025
 1776SOL     OW 5368   3.752   3.472   2.468  0.4755 -0.0400  0.5887
 1776SOL    HW1 5369   3.725   3.414   2.539 -1.2822  0.7144  0.5830
 1776SOL    HW2 5370   3.845   3.452   2.455 -0.0773 -3.0038  0.4314
 1777SOL     OW 5371   4.178   3.196   2.635 -0.3680 -0.2393  0.5976
 1777SOL    HW1 5372   4.083   3.203   2.640 -0.3297  1.5015 -0.2734
 1777SOL    HW2 5373   4.210   3.277   2.675  0.6321  0.5647 -1.6606
 1778SOL     OW 5374   3.950   2.659   2.271 -0.6269 -0.3973 -0.4085
 1778SOL    HW1 5375   3.935   2.669   2.177  0.0034  0.2798 -0.4487
 1778SOL    HW2 5376   3.894   2.585   2.297 -0.7506 -0.6376 -1.3224
 1779SOL     OW 5377   3.856   3.130   1.864  0.0930 -0.3397  0.3891
 1779SOL    HW1 5378   3.940   3.148   1.906  0.4766  0.8738 -0.8149
 1779SOL    HW2 5379   3.878   3.073   1.790 -0.0969  0.2245 -0.1031
 1780SOL     OW 5380   4.148   2.545   1.950 -0.4469 -0.5604 -0.4306
 1780SOL    HW1 5381   4.121   2.636   1.961  0.6550 -0.2104 -0.4656
 1780SOL    HW2 5382   4.179   2.520   2.037 -1.8976 -1.3149 -0.1063
 1781SOL     OW 5383   3.812   3.049   2.469  0.3138  0.3491  0.3252
 1781SOL    HW1 5384   3.852   3.119   2.418  0.0414  0.4065  0.1873
 1781SOL    HW2 5385   3.748   3.009   2.410  0.0127  0.3996  0.6123
 1782SOL     OW 5386   4.775   2.084   2.516  0.5986 -0.3715 -0.4997
 1782SOL    HW1 5387   4.724   2.112   2.440  1.7958  0.7183 -0.9280
 1782SOL    HW2 5388   4.812   2.000   2.488  0.3596 -0.3841 -0.7977
 1783SOL     OW 5389   4.076   6.110   2.578 -0.1007  0.2587  0.3565
 1783SOL    HW1 5390   4.036   6.023   2.574 -0.7077  0.5197  0.6285
 1783SOL    HW2 5391   4.006   6.169   2.550  0.9893  0.4770 -2.1471
 1784SOL     OW 5392   4.033   3.443   2.492 -0.2644  0.0594  0.1906
 1784SOL    HW1 5393   4.092   3.422   2.419  0.9246  0.4998  0.9861
 1784SOL    HW2 5394   4.091   3.473   2.562 -1.5112  1.4312  0.7003
 1785SOL     OW 5395   3.965   2.925   2.096  0.1569  0.2999 -0.0055
 1785SOL    HW1 5396   3.889   2.868   2.083 -0.2602  0.4322  1.5828
 1785SOL    HW2 5397   3.929   3.006   2.133  0.9822  0.6721  0.0195
 1786SOL     OW 5398   4.163   2.841   2.294  0.2609  0.5558  0.6247
 1786SOL    HW1 5399   4.134   2.750   2.286  2.7640 -0.2839  0.1143
 1786SOL    HW2 5400   4.118   2.887   2.224 -0.2434 -0.5159  0.2274
 1787SOL     OW 5401   4.365   2.018   2.335 -0.1745 -0.3820 -0.1107
 1787SOL    HW1 5402   4.420   1.973   2.399 -1.2318 -0.2389  0.9360
 1787SOL    HW2 5403   4.296   1.955   2.314  0.2381 -0.4796 -1.2382
 1788SOL     OW 5404   3.861   6.362   2.819  0.1149  0.6148 -0.1454
 1788SOL    HW1 5405   3.810   6.281   2.818 -0.7836  1.1612 -0.0785
 1788SOL    HW2 5406   3.865   6.389   2.727  2.3954 -0.6782 -0.4918
 1789SOL     OW 5407   4.358   3.010   2.578  0.2818 -0.5404  0.0315
 1789SOL    HW1 5408   4.298   3.080   2.603 -0.3200 -1.1402  0.2682
 1789SOL    HW2 5409   4.316   2.930   2.608  2.2163 -0.8258  2.2071
 1790SOL     OW 5410   4.461   3.332   2.399  0.4027 -0.4858  0.9125
 1790SOL    HW1 5411   4.508   3.335   2.482  1.2536 -2.4686  0.5626
 1790SOL    HW2 5412   4.493   3.252   2.356  0.0020  0.4811 -1.3284
 1791SOL     OW 5413   4.134   2.760   2.848 -0.0592  0.2269  0.0650
 1791SOL    HW1 5414   4.177   2.736   2.766  2.1536 -2.0107  1.7191
 1791SOL    HW2 5415   4.054   2.707   2.849  0.0872 -0.0090 -0.5212
 1792SOL     OW 5416   3.475   2.155   2.553 -0.0786  0.2018  0.7087
 1792SOL    HW1 5417   3.520   2.223   2.602  0.9355  1.0119 -1.2272
 1792SOL    HW2 5418   3.489   2.075   2.603  0.7292  1.0132  1.8206
 1793SOL     OW 5419   4.207   3.011   2.977 -0.1133  0.3049 -0.6322
 1793SOL    HW1 5420   4.202   2.931   2.924 -0.7087 -0.2209  0.2033
 1793SOL    HW2 5421   4.116   3.038   2.989  0.0386  0.6394 -0.2123
 1794SOL     OW 5422   3.859   2.791   2.516  0.4443 -0.5123  0.0218
 1794SOL    HW1 5423   3.850   2.885   2.496  0.5213 -0.7307 -1.0903
 1794SOL    HW2 5424   3.917   2.758   2.448  0.2525 -1.4145  0.2911
 1795SOL     OW 5425   3.665   3.121   2.060 -0.1683 -0.2908  0.5772
 1795SOL    HW1 5426   3.704   3.112   1.973 -0.0802 -0.7376  0.6578
 1795SOL    HW2 5427   3.700   3.203   2.094 -0.1777 -0.1303  0.2069
 1796SOL     OW 5428   3.788   3.491   2.900  0.0700  0.1617 -0.1199
 1796SOL    HW1 5429   3.743   3.432   2.839 -2.3609  0.9367  0.8180
 1796SOL    HW2 5430   3.749   3.471   2.986  0.5823  1.7725  0.5276
 1797SOL     OW 5431   4.506   2.440   1.912  0.0757 -0.1465  0.1648
 1797SOL    HW1 5432   4.572   2.489   1.862  0.3192 -0.2329  0.3977
 1797SOL    HW2 5433   4.540   2.439   2.001  0.2775 -1.1083  0.0860
 1798SOL     OW 5434   4.064   2.291   1.884 -0.1839  0.1146 -0.2763
 1798SOL    HW1 5435   4.103   2.271   1.969 -1.6952 -0.0453  0.4175
 1798SOL    HW2 5436   4.075   2.386   1.874  0.3434  0.0759 -0.0883
 1799SOL     OW 5437   3.822   3.109   2.747 -0.3625 -0.3404 -0.6237
 1799SOL    HW1 5438   3.787   3.025   2.776  1.9016 -1.6460 -1.4055
 1799SOL    HW2 5439   3.834   3.098   2.652  0.5771  0.6203 -0.6304
 1800SOL     OW 5440   3.889   2.625   2.763  0.0463  0.9308 -0.3316
 1800SOL    HW1 5441   3.928   2.662   2.684  0.3375  1.4179  0.0398
 1800SOL    HW2 5442   3.894   2.530   2.750  0.2925  1.0079 -0.8024
 1801SOL     OW 5443   4.771   3.536   2.466  0.3539 -0.2457 -0.3637
 1801SOL    HW1 5444   4.729   3.564   2.385 -0.2478  1.4622  0.4947
 1801SOL    HW2 5445   4.743   3.600   2.531  0.9224 -1.5065  1.1798
 1802SOL     OW 5446   4.252   3.442   2.065  0.7134  0.3309 -0.8019
 1802SOL    HW1 5447   4.200   3.496   2.007  0.1606 -0.7633 -1.3508
 1802SOL    HW2 5448   4.232   3.475   2.153 -1.9101 -0.8287 -0.8689
 1803SOL     OW 5449   2.076   0.206   0.210 -0.5753  0.0354  0.1241
 1803SOL    HW1 5450   2.093   0.121   0.169 -2.2064 -1.4105  2.2266
 1803SOL    HW2 5451   2.106   0.195   0.300 -2.6692  0.9305  0.9983
 1804SOL     OW 5452   3.596   2.424   1.494 -0.0879 -0.1841 -0.1721
 1804SOL    HW1 5453   3.626   2.336   1.516  0.6949 -0.1422 -0.9754
 1804SOL    HW2 5454   3.674   2.479   1.504 -0.5627  0.4129  0.3022
 1805SOL     OW 5455   3.826   1.751   1.618 -0.4691 -0.0758  0.1342
 1805SOL    HW1 5456   3.768   1.685   1.581 -0.4084 -0.1299  0.1361
 1805SOL    HW2 5457   3.781   1.780   1.698 -0.1169 -0.6904  0.5692
 1806SOL     OW 5458   4.177   3.217   2.342  0.2458  0.0503 -0.1728
 1806SOL    HW1 5459   4.172   3.194   2.435 -0.5354 -0.4506 -0.3227
 1806SOL    HW2 5460   4.264   3.256   2.331  0.3134  0.1968  0.7816
 1807SOL     OW 5461   4.120   2.507   2.521 -0.1157  0.2072  0.1293
 1807SOL    HW1 5462   4.133   2.506   2.426  0.5420 -1.2811  0.2061
 1807SOL    HW2 5463   4.141   2.418   2.549 -0.3954  0.5951  1.6695
 1808SOL     OW 5464   3.800   2.698   2.047  0.1055  0.1634 -0.1595
 1808SOL    HW1 5465   3.809   2.618   1.996  1.1750  0.5050 -0.5303
 1808SOL    HW2 5466   3.707   2.702   2.070 -0.1095 -0.7429 -0.8516
 1809SOL     OW 5467   3.814   3.299   0.647 -0.0767  0.1391  0.5045
 1809SOL    HW1 5468   3.811   3.283   0.552  0.2999  0.6056  0.4087
 1809SOL    HW2 5469   3.738   3.252   0.681 -0.9906  1.0587 -0.1946
 1810SOL     OW 5470   3.874   3.948   0.650  0.3672 -0.3860 -0.5950
 1810SOL    HW1 5471   3.838   3.957   0.738 -0.6761 -0.8372 -0.9622
 1810SOL    HW2 5472   3.900   4.037   0.625  0.7221 -0.2631  0.1763
 1811SOL     OW 5473   4.270   4.187   1.779 -0.4790  0.2185 -0.4299
 1811SOL    HW1 5474   4.188   4.168   1.734 -0.9813  1.5146 -0.1106
 1811SOL    HW2 5475   4.269   4.130   1.856 -0.6233 -0.4456 -0.9127
 1812SOL     OW 5476   3.538   3.943   0.371 -0.3468 -0.2464 -0.3982
 1812SOL    HW1 5477   3.473   3.883   0.405 -0.4610 -0.5813 -1.1865
 1812SOL    HW2 5478   3.558   3.911   0.283  1.4779 -0.6428  0.1030
 1813SOL     OW 5479   4.002   4.086   1.734 -0.2357  0.3084 -0.4135
 1813SOL    HW1 5480   3.927   4.076   1.675 -0.9992 -0.5103  0.6675
 1813SOL    HW2 5481   3.967   4.068   1.821  1.3975 -1.0261  0.0139
 1814SOL     OW 5482   3.821   4.066   1.250 -0.0227  0.2209  0.0598
 1814SOL    HW1 5483   3.868   3.994   1.207  0.0655 -0.9178  1.9225
 1814SOL    HW2 5484   3.875   4.143   1.234 -0.1795 -0.0622 -2.0867
 1815SOL     OW 5485   0.283   3.961   0.277  0.3231 -0.5528  0.2194
 1815SOL    HW1 5486   0.320   4.038   0.233  0.5178 -0.2894  0.8360
 1815SOL    HW2 5487   0.258   3.993   0.364 -2.0059 -0.5672 -0.3961
 1816SOL     OW 5488   4.515   4.078   0.910  0.4230  0.4379  0.5495
 1816SOL    HW1 5489   4.519   4.078   1.006  2.0008  0.8566  0.5032
 1816SOL    HW2 5490   4.475   3.994   0.888 -1.1208  0.8496  1.5831
 1817SOL     OW 5491   4.029   3.597   1.650  0.3837 -0.0153 -0.3428
 1817SOL    HW1 5492   4.062   3.686   1.634 -0.1176 -0.0883 -2.0442
 1817SOL    HW2 5493   3.967   3.607   1.722 -0.4154  1.2230 -1.1590
 1818SOL     OW 5494   4.518   3.636   0.522  0.2035  0.0365 -0.6322
 1818SOL    HW1 5495   4.541   3.581   0.447  0.0886 -0.2291 -0.4759
 1818SOL    HW2 5496   4.430   3.607   0.547  1.6358 -2.6202  1.9818
 1819SOL     OW 5497   3.936   4.440   1.885 -0.1399  0.3558  0.3044
 1819SOL    HW1 5498   3.960   4.532   1.898  0.6999  0.4709 -1.6763
 1819SOL    HW2 5499   3.922   4.432   1.790 -1.5687 -1.2585  0.5942
 1820SOL     OW 5500   4.152   3.940   1.399  0.5110  0.4680  0.1981
 1820SOL    HW1 5501   4.142   3.895   1.483 -0.9358  1.4499  0.5965
 1820SOL    HW2 5502   4.213   4.012   1.417  0.4299  0.5018  0.3418
 1821SOL     OW 5503   4.005   4.281   1.187  0.1013 -0.4516 -0.2985
 1821SOL    HW1 5504   3.983   4.298   1.095  0.8201 -0.8722 -0.5655
 1821SOL    HW2 5505   4.101   4.286   1.189  0.4665 -4.2467 -0.4152
 1822SOL     OW 5506   4.141   3.855   1.654 -0.6053 -0.1220  0.3367
 1822SOL    HW1 5507   4.099   3.933   1.690  0.0889  0.4560 -0.0860
 1822SOL    HW2 5508   4.206   3.829   1.719 -0.4303  0.0019  0.2125
 1823SOL     OW 5509   3.990   3.867   1.183 -0.4596  0.3067 -0.0809
 1823SOL    HW1 5510   4.056   3.876   1.252 -1.5490 -0.0775  1.0596
 1823SOL    HW2 5511   4.039   3.842   1.105  0.8729  1.2847  0.4122
 1824SOL     OW 5512   4.171   3.552   0.390  0.8134  0.0466  0.2439
 1824SOL    HW1 5513   4.155   3.545   0.296 -1.3783  1.8557  0.3933
 1824SOL    HW2 5514   4.185   3.462   0.419  1.3502 -0.5626 -1.7524
 1825SOL     OW 5515   3.637   4.246   0.979  0.2617  0.0297 -0.3171
 1825SOL    HW1 5516   3.727   4.258   1.009  0.3296  2.8184 -1.3819
 1825SOL    HW2 5517   3.587   4.230   1.059  1.1552  2.3850  0.7972
 1826SOL     OW 5518   3.506   4.137   1.203 -0.1461  0.7883 -0.2014
 1826SOL    HW1 5519   3.517   4.046   1.176  0.8005  1.4045 -2.0603
 1826SOL    HW2 5520   3.535   4.138   1.295 -1.1291 -0.9320  0.1723
 1827SOL     OW 5521   3.718   4.291   2.058  0.4630  0.2423 -0.3123
 1827SOL    HW1 5522   3.758   4.332   1.982  0.8711  1.1836  0.3872
 1827SOL    HW2 5523   3.712   4.361   2.123  2.0045 -0.9685  1.2410
 1828SOL     OW 5524   4.399   4.226   0.551  0.0072  0.9993  0.4444
 1828SOL    HW1 5525   4.449   4.145   0.551 -0.0790  0.8975  2.2079
 1828SOL    HW2 5526   4.313   4.201   0.518 -0.3355  0.1262  1.9206
 1829SOL     OW 5527   3.891   4.188   0.419  0.3365  0.0869 -0.4671
 1829SOL    HW1 5528   3.904   4.224   0.332 -0.2771 -1.6375 -1.3036
 1829SOL    HW2 5529   3.796   4.188   0.431  0.4487  2.1031  1.0312
 1830SOL     OW 5530   4.114   3.844   0.718  0.2869 -0.5389  0.2976
 1830SOL    HW1 5531   4.131   3.891   0.799 -0.1293 -0.5622  0.4033
 1830SOL    HW2 5532   4.019   3.850   0.706  0.5260  1.1388 -1.2240
 1831SOL     OW 5533   5.682   6.346   2.852  0.1697 -0.0994  0.2132
 1831SOL    HW1 5534   5.664   6.258   2.886  0.8752 -0.0493  0.7448
 1831SOL    HW2 5535   5.705   6.332   2.760  1.0963 -0.5744  0.5058
 1832SOL     OW 5536   4.203   3.854   0.457  0.1228 -0.2717 -0.0787
 1832SOL    HW1 5537   4.223   3.761   0.443 -0.5647 -0.2523 -1.3435
 1832SOL    HW2 5538   4.156   3.856   0.540 -0.1130 -1.0889 -0.1847
 1833SOL     OW 5539   4.022   4.267   1.471  0.2113  0.3599  0.0977
 1833SOL    HW1 5540   3.998   4.180   1.502 -1.3028  0.4965 -0.5867
 1833SOL    HW2 5541   4.021   4.261   1.376  0.7202  0.9768  0.0440
 1834SOL     OW 5542   3.923   4.276   2.532  0.1547 -0.5111  0.7352
 1834SOL    HW1 5543   3.861   4.204   2.530  0.9629 -1.2227 -1.2476
 1834SOL    HW2 5544   4.005   4.238   2.501 -0.0259  1.7422 -3.0438
 1835SOL     OW 5545   3.586   4.148   2.619  0.4352  0.2873 -0.0196
 1835SOL    HW1 5546   3.657   4.084   2.632  1.1221  0.8733 -0.7365
 1835SOL    HW2 5547   3.534   4.111   2.547  0.0622 -0.0945  0.4390
 1836SOL     OW 5548   3.873   4.698   2.658 -0.3176 -0.2563 -0.3520
 1836SOL    HW1 5549   3.821   4.628   2.618 -0.8657  0.0647 -0.2082
 1836SOL    HW2 5550   3.909   4.658   2.737 -2.7675  0.3364  1.1782
 1837SOL     OW 5551   3.901   4.224   2.897  0.4567 -0.0631  0.6668
 1837SOL    HW1 5552   3.938   4.145   2.857 -0.8766  0.3169 -1.4959
 1837SOL    HW2 5553   3.824   4.192   2.945  0.6736 -0.2252  0.9111
 1838SOL     OW 5554   4.575   4.221   1.810  0.2710 -0.8182 -0.2675
 1838SOL    HW1 5555   4.626   4.206   1.889  1.4278 -0.5308 -0.9422
 1838SOL    HW2 5556   4.486   4.195   1.833  0.5616 -0.5843  1.1685
 1839SOL     OW 5557   4.720   4.140   2.430 -0.1343 -0.4080  0.6294
 1839SOL    HW1 5558   4.652   4.093   2.382 -1.5829  3.0151 -0.9803
 1839SOL    HW2 5559   4.684   4.152   2.517 -0.4933 -0.7318  0.5304
 1840SOL     OW 5560   4.295   3.938   1.909 -0.2934  0.3088 -0.2825
 1840SOL    HW1 5561   4.237   3.944   1.985 -1.0211  0.2202 -0.8205
 1840SOL    HW2 5562   4.349   3.861   1.926 -0.5749  0.1810  0.0583
 1841SOL     OW 5563   4.385   4.046   2.558  0.2961 -0.2131 -0.5162
 1841SOL    HW1 5564   4.333   3.977   2.600 -2.0092 -1.2453 -4.5433
 1841SOL    HW2 5565   4.382   4.119   2.620 -2.6607 -1.6038  1.2130
 1842SOL     OW 5566   4.299   3.555   2.334 -0.0249 -0.1619  0.2501
 1842SOL    HW1 5567   4.361   3.613   2.291  0.6489 -1.0902 -0.0489
 1842SOL    HW2 5568   4.352   3.483   2.368 -0.7985 -0.4441  0.9057
 1843SOL     OW 5569   4.443   4.186   2.933  0.1769  0.4212  0.8576
 1843SOL    HW1 5570   4.414   4.172   3.024 -0.6937 -1.8418  0.2891
 1843SOL    HW2 5571   4.495   4.108   2.912 -0.4705  0.4236 -0.8975
 1844SOL     OW 5572   4.364   4.661   2.817  0.1434 -0.0377  0.1504
 1844SOL    HW1 5573   4.323   4.599   2.877 -0.9377  1.6473  1.2309
 1844SOL    HW2 5574   4.457   4.658   2.838  0.3150 -2.0942 -0.6324
 1845SOL     OW 5575   4.280   3.838   2.700 -0.2291 -0.4366 -0.1210
 1845SOL    HW1 5576   4.265   3.754   2.656  1.9099 -1.2938  0.6290
 1845SOL    HW2 5577   4.242   3.827   2.787  0.6402 -0.9021  0.2089
 1846SOL     OW 5578   4.066   4.047   2.762  0.1530 -0.1363  0.4006
 1846SOL    HW1 5579   4.121   4.123   2.745 -0.9710  0.7125  0.4452
 1846SOL    HW2 5580   4.116   3.973   2.727  1.5719  0.5142  0.9698
 1847SOL     OW 5581   4.855   4.347   2.314  0.7071 -0.2960  0.1987
 1847SOL    HW1 5582   4.903   4.364   2.395  0.0153 -2.4348  1.1462
 1847SOL    HW2 5583   4.796   4.274   2.337 -0.4311 -0.0938 -1.8800
 1848SOL     OW 5584   4.293   4.515   2.562  0.1369  0.1669  0.6833
 1848SOL    HW1 5585   4.247   4.583   2.512 -1.1031  0.1993  1.8162
 1848SOL    HW2 5586   4.324   4.561   2.640 -0.5022 -0.5015  1.3450
 1849SOL     OW 5587   3.848   3.792   2.361 -0.4105 -0.3789  0.3538
 1849SOL    HW1 5588   3.859   3.866   2.420  3.8545  0.2127 -0.8607
 1849SOL    HW2 5589   3.787   3.824   2.294  1.4214  2.1731 -0.2215
 1850SOL     OW 5590   4.105   4.152   2.401  0.1372  0.5694  0.0649
 1850SOL    HW1 5591   4.196   4.150   2.432  0.5083  3.2410 -0.5826
 1850SOL    HW2 5592   4.110   4.124   2.310  0.0611 -0.6572  0.4186
 1851SOL     OW 5593   4.103   4.749   2.469  0.0323  0.0733  0.2013
 1851SOL    HW1 5594   4.022   4.750   2.520  0.3422 -1.5952  0.7660
 1851SOL    HW2 5595   4.161   4.808   2.516 -0.4350  0.2979  0.5087
 1852NaJ    NaJ 5596   1.364   1.047   1.025 -0.2792  0.2565  0.3074
 1853NaJ    NaJ 5597   1.798   4.611   1.724  0.1555 -0.0190 -0.0561
 1854NaJ    NaJ 5598   1.096   4.407   0.853  0.5349  0.3370  0.2710
 1855NaJ    NaJ 5599   3.716   4.574   1.645 -0.1615 -0.0066 -0.0129
 1856NaJ    NaJ 5600   3.741   1.785   0.457 -0.5512  0.0147 -0.1647
 1857ClJ    ClJ 5601   0.225   0.497   0.169 -0.0924  0.2053  0.1662
 1858ClJ    ClJ 5602   0.955   3.366   1.245 -0.0415  0.2692 -0.0996
 1859ClJ    ClJ 5603   4.723   3.561   2.943  0.1981  0.1749  0.0090
 1860ClJ    ClJ 5604   2.218   3.866   2.565 -0.4182  0.4014 -0.0420
 1861ClJ    ClJ 5605   3.781   1.884   1.923  0.0012  0.2479 -0.1765
   4.33090   4.33090   3.06241   0.00000   0.00000   0.00000   0.00000   2.16545   2.16545
