#include "amber99sb-star-ildn-mut.ff/forcefield.itp"
#include "/home2/shbae/devel/osbfe/pmx/tutorial/workpath/edge_18625-1_18626-1/hybridStrTop/ffmerged.itp"
#include "/home2/shbae/devel/osbfe/pmx/tutorial/workpath/edge_18625-1_18626-1/hybridStrTop/merged.itp"
#include "amber99sb-star-ildn-mut.ff/tip3p.itp"
#include "amber99sb-star-ildn-mut.ff/ions.itp"

[ system ]
ligand in water

[ molecules ]
MOL 1
SOL         1850
NaJ              5
ClJ              5
