ligand in water
 5605
    1LIG      C    1   3.142   4.044   1.431  0.4766 -0.2767  0.0105
    1LIG     C1    2   3.096   3.898   1.415 -0.4675  0.0799 -0.5362
    1LIG      O    3   3.000   3.867   1.517 -0.0701 -0.5058 -0.3361
    1LIG     C2    4   2.958   3.740   1.548 -0.0981 -0.3687  0.2010
    1LIG      N    5   3.017   3.635   1.490  0.1318 -0.1573  0.0493
    1LIG     C3    6   2.982   3.512   1.530 -0.3115  0.1630  0.6490
    1LIG     C4    7   2.880   3.493   1.624 -1.0916  0.1078 -0.1959
    1LIG     C5    8   2.812   3.600   1.681 -0.9109  0.1099  0.0149
    1LIG     N1    9   2.715   3.580   1.778 -0.9039  0.2545  0.0526
    1LIG     C6   10   2.859   3.727   1.645 -0.6872 -0.0773 -0.3536
    1LIG     C7   11   2.817   3.845   1.714  0.3456  0.0026  0.1599
    1LIG     N2   12   2.785   3.951   1.750 -0.3568 -0.2153  0.1957
    1LIG     N3   13   3.047   3.401   1.473 -0.0886  0.3904  0.4555
    1LIG     C8   14   2.992   3.283   1.427  0.3633  0.3407  0.0451
    1LIG     O1   15   2.881   3.243   1.457  0.3972  0.1808 -0.0416
    1LIG     C9   16   3.075   3.203   1.327 -0.0158 -0.2154  0.1736
    1LIG    C10   17   3.199   3.160   1.404  0.4142 -0.3892 -0.6028
    1LIG    C11   18   3.209   3.050   1.489 -0.0986  0.4715  0.6063
    1LIG     CL   19   3.069   2.960   1.545 -0.3270  0.1287 -0.4904
    1LIG    C12   20   3.323   3.022   1.564  0.0841  0.1238  0.2088
    1LIG    C13   21   3.443   3.090   1.542  0.2703 -0.0615  0.6326
    1LIG    C14   22   3.434   3.199   1.454  0.2738 -0.1337  0.5434
    1LIG    C15   23   3.314   3.238   1.394  0.4763 -0.4039 -0.0370
    1LIG      H   24   3.219   4.082   1.363  1.8151 -0.0535  1.5876
    1LIG     H1   25   3.062   4.118   1.428  2.0189  1.4666  0.5463
    1LIG     H2   26   3.185   4.052   1.532 -1.2594 -1.8676  0.9517
    1LIG     H3   27   3.044   3.882   1.319 -1.5936 -1.3515  0.2598
    1LIG     H4   28   3.178   3.826   1.419 -1.3747 -0.9124  1.2176
    1LIG     H5   29   2.839   3.392   1.630  0.9063 -0.9048 -2.1591
    1LIG     H6   30   2.703   3.644   1.855 -1.6250 -1.7631  1.7133
    1LIG     H7   31   2.696   3.485   1.806  1.9029  0.4088  3.0081
    1LIG     H8   32   3.134   3.425   1.428  0.3657 -1.9977 -0.1017
    1LIG     H9   33   3.011   3.119   1.295 -0.0805  0.1109 -0.5797
    1LIG    H10   34   3.100   3.265   1.240  0.4514 -0.5288  0.0808
    1LIG    H11   35   3.314   2.937   1.631 -0.1873 -2.6654 -3.1153
    1LIG    H12   36   3.538   3.064   1.589  0.6281 -1.4569 -0.8012
    1LIG    H13   37   3.521   3.261   1.438 -0.0043  0.1553  0.1461
    1LIG    H14   38   3.306   3.328   1.335  0.1781 -0.0678  0.5147
    1LIG    EP1   39   2.915   2.859   1.607 -0.5809 -0.2522 -1.7092
    1LIG    DCL   40   3.313   2.893   1.682  0.0366 -0.0131  0.0564
    1LIG    HV6   41   2.682   3.490   1.810 -0.2661  0.2148  0.6088
    1LIG    HV7   42   2.651   3.654   1.805 -0.7612  0.0729  0.9000
    1LIG    HV8   43   3.126   3.424   1.415 -0.8412 -0.0000 -0.7601
    1LIG   HV11   44   3.118   2.991   1.504  0.6443 -1.1453 -0.8297
    1LIG   DEP1   45   3.301   2.750   1.813 -0.0162 -0.1653 -0.1130
    2SOL     OW   46   4.233   0.432   0.274 -0.2993 -0.4035  0.0527
    2SOL    HW1   47   4.169   0.474   0.217 -1.1060 -1.5092  0.1143
    2SOL    HW2   48   4.286   0.378   0.216  0.0665 -0.1109  0.1107
    3SOL     OW   49   4.330   4.449   0.854 -0.3859  0.2926  0.3966
    3SOL    HW1   50   4.362   4.529   0.811 -1.7439  0.2190 -0.8582
    3SOL    HW2   51   4.293   4.397   0.782 -0.8155 -0.8179  1.3909
    4SOL     OW   52   4.164   4.781   0.934 -0.7159 -0.0900 -0.2235
    4SOL    HW1   53   4.242   4.833   0.918 -0.4893 -0.1553  0.6353
    4SOL    HW2   54   4.145   4.740   0.850  0.4589 -0.4617 -0.3240
    5SOL     OW   55   4.835   1.401   1.321 -0.1472 -0.1066  0.2750
    5SOL    HW1   56   4.740   1.393   1.317 -0.3204  0.6932  1.9707
    5SOL    HW2   57   4.857   1.379   1.412  1.3071 -0.3324 -0.1022
    6SOL     OW   58   1.404   1.377   0.706  0.2825 -0.1859 -0.5826
    6SOL    HW1   59   1.376   1.385   0.797  0.0546 -0.7602 -0.5981
    6SOL    HW2   60   1.344   1.434   0.658  0.3572  0.0627 -0.3838
    7SOL     OW   61   1.084   0.703   0.635  0.2054 -0.3727 -0.1886
    7SOL    HW1   62   1.127   0.787   0.626 -0.0295 -0.2189  0.1132
    7SOL    HW2   63   1.146   0.640   0.598  0.9510 -0.2320  0.7724
    8SOL     OW   64   2.034   4.548   0.476 -0.4883 -0.1054  0.4175
    8SOL    HW1   65   2.003   4.627   0.519 -3.7765  0.2935 -2.3251
    8SOL    HW2   66   2.108   4.577   0.423 -0.6006  0.7709  0.7201
    9SOL     OW   67   4.939   0.927   1.269 -0.1744 -0.1321 -0.1703
    9SOL    HW1   68   4.881   0.865   1.224  0.6861 -1.2893  0.2676
    9SOL    HW2   69   4.942   1.003   1.211  0.2775 -1.2700 -1.7251
   10SOL     OW   70   1.355   4.887   1.903  0.2789  0.2159  0.2756
   10SOL    HW1   71   1.430   4.898   1.961  1.0563  0.9779 -0.8467
   10SOL    HW2   72   1.281   4.922   1.953  0.7326 -0.1807  1.2389
   11SOL     OW   73   0.831   1.285   0.790  0.1572 -0.0136  0.3978
   11SOL    HW1   74   0.826   1.337   0.710  2.2985  0.3096  0.3910
   11SOL    HW2   75   0.790   1.340   0.857 -0.9238  0.0575 -0.3015
   12SOL     OW   76   5.298   5.638   2.028 -0.0601  0.1939  0.5185
   12SOL    HW1   77   5.215   5.685   2.036 -0.5735 -0.8171  1.4448
   12SOL    HW2   78   5.272   5.548   2.007  0.8804  0.2250 -0.8745
   13SOL     OW   79   4.216   1.819   1.199 -0.4887 -0.0785  0.5935
   13SOL    HW1   80   4.234   1.760   1.126 -0.4550  1.7967 -1.0266
   13SOL    HW2   81   4.280   1.795   1.266  1.7891  0.2341 -1.3241
   14SOL     OW   82   1.160   1.443   1.730 -0.2590  0.3520  0.8504
   14SOL    HW1   83   1.253   1.467   1.731 -0.5401  1.5600  0.1878
   14SOL    HW2   84   1.116   1.518   1.690 -1.3820 -0.7264 -0.0369
   15SOL     OW   85   5.232   5.028   1.563  0.1838  0.4208  0.3404
   15SOL    HW1   86   5.200   4.987   1.643  3.2387 -2.3244  0.3462
   15SOL    HW2   87   5.252   5.118   1.589  0.8927 -0.3195  2.6320
   16SOL     OW   88   1.244   0.309   0.360 -0.8158  0.3027  0.2935
   16SOL    HW1   89   1.323   0.256   0.360 -1.5529 -0.8621  2.0668
   16SOL    HW2   90   1.273   0.397   0.382  0.3066  0.5492 -1.8695
   17SOL     OW   91   4.360   1.919   0.596  0.5779 -0.1294  0.9013
   17SOL    HW1   92   4.364   2.011   0.571 -0.4749 -0.5413 -0.9575
   17SOL    HW2   93   4.324   1.920   0.685 -0.5000  1.2195  0.4921
   18SOL     OW   94   5.497   5.515   1.850 -0.2622 -0.3152 -0.1576
   18SOL    HW1   95   5.513   5.596   1.802 -1.1356 -1.2947 -2.2187
   18SOL    HW2   96   5.410   5.527   1.889 -1.0284 -0.7547 -1.6574
   19SOL     OW   97   4.379   1.255   1.101  0.0289 -0.2810 -0.1755
   19SOL    HW1   98   4.290   1.240   1.069  0.7032 -0.9056 -1.8832
   19SOL    HW2   99   4.378   1.225   1.192 -1.9995  1.6266  0.5087
   20SOL     OW  100   4.571   1.396   1.336 -0.2573 -0.6347 -0.2911
   20SOL    HW1  101   4.477   1.393   1.318 -0.4137 -1.9985  0.6125
   20SOL    HW2  102   4.577   1.413   1.430  0.4137  0.0065 -0.4432
   21SOL     OW  103   4.963   1.605   1.549 -0.2805  0.3010 -0.0487
   21SOL    HW1  104   4.999   1.594   1.460 -1.1550  1.4001 -0.5586
   21SOL    HW2  105   4.880   1.652   1.536 -1.3014 -1.0465  1.2005
   22SOL     OW  106   0.634   0.727   0.303  0.5035  0.1261  0.1132
   22SOL    HW1  107   0.655   0.715   0.396  0.8155  0.8162  0.1371
   22SOL    HW2  108   0.632   0.638   0.267  3.2834 -0.0403  0.1489
   23SOL     OW  109   1.746   4.879   1.427  0.0638  0.8693  0.2677
   23SOL    HW1  110   1.697   4.869   1.508  0.3853  1.0791  0.4892
   23SOL    HW2  111   1.689   4.839   1.360  0.2288 -0.2003  0.7402
   24SOL     OW  112   4.511   0.969   0.827 -0.7132  0.0960  0.6908
   24SOL    HW1  113   4.456   1.026   0.774 -0.7548 -2.3572 -2.2092
   24SOL    HW2  114   4.594   0.963   0.779 -0.6268 -2.0024  0.9811
   25SOL     OW  115   2.486   1.593   0.293 -0.4294  0.4108  0.4612
   25SOL    HW1  116   2.401   1.612   0.254 -0.6062  0.9313  1.0813
   25SOL    HW2  117   2.544   1.661   0.261 -0.4579  0.5580  0.7189
   26SOL     OW  118   6.251   3.788   2.997  0.5201 -0.1981  0.1901
   26SOL    HW1  119   6.269   3.740   3.078  0.9418 -3.0677 -1.4508
   26SOL    HW2  120   6.156   3.788   2.989  0.4797  0.0827  0.6656
   27SOL     OW  121   1.974   0.487   0.531 -0.0174 -0.1954  0.1781
   27SOL    HW1  122   1.892   0.532   0.550 -0.6845 -0.6056 -1.5753
   27SOL    HW2  123   2.018   0.544   0.468  1.6706  0.6475  2.0196
   28SOL     OW  124   2.010   0.867   0.202  0.0077 -0.4160 -0.1157
   28SOL    HW1  125   1.935   0.883   0.144 -0.4312  1.9543  0.9553
   28SOL    HW2  126   2.087   0.881   0.147 -0.3183 -1.4962 -0.8882
   29SOL     OW  127   4.583   4.890   1.507  0.1720  0.1281  0.1146
   29SOL    HW1  128   4.587   4.935   1.422 -1.5480 -2.5997 -1.6004
   29SOL    HW2  129   4.532   4.948   1.563 -1.9846  0.4242 -1.9934
   30SOL     OW  130   4.967   1.198   1.159  0.1340 -0.1894 -0.1510
   30SOL    HW1  131   5.056   1.229   1.143  0.1732 -0.0894  0.2428
   30SOL    HW2  132   4.948   1.226   1.249 -0.0985 -0.6731 -0.0484
   31SOL     OW  133   1.155   5.210   1.331  0.6476 -0.0161  0.7731
   31SOL    HW1  134   1.187   5.265   1.403 -0.5446  1.0851  0.4926
   31SOL    HW2  135   1.060   5.217   1.336  0.5078  1.7580 -2.1191
   32SOL     OW  136   0.630   3.853   0.455  0.4870 -0.1741  0.1423
   32SOL    HW1  137   0.724   3.835   0.456  0.3462 -0.9453  0.2290
   32SOL    HW2  138   0.589   3.770   0.482 -0.1903  0.3541  0.7717
   33SOL     OW  139   4.811   4.970   1.238 -0.0569  0.2766  0.5201
   33SOL    HW1  140   4.889   4.961   1.293  0.0755  1.1048  0.4730
   33SOL    HW2  141   4.806   4.888   1.190  0.2586 -0.1561  1.2096
   34SOL     OW  142   1.358   0.876   0.089 -0.0408  0.4275  0.2990
   34SOL    HW1  143   1.447   0.877   0.053 -0.2527 -0.3857 -0.2578
   34SOL    HW2  144   1.306   0.926   0.026  0.0935  1.2746  0.8443
   35SOL     OW  145   1.339   1.789   1.795  0.1408  0.0135 -0.3824
   35SOL    HW1  146   1.370   1.701   1.773  0.3319 -0.5642  1.8736
   35SOL    HW2  147   1.417   1.836   1.822 -0.1876  0.3063  0.0814
   36SOL     OW  148   5.159   4.892   2.100  0.4348 -0.1747 -0.0513
   36SOL    HW1  149   5.152   4.889   2.005 -0.0856 -1.0521  0.0029
   36SOL    HW2  150   5.135   4.982   2.123 -1.0081 -0.3827 -0.6380
   37SOL     OW  151   1.365   1.301   0.357  1.1410  0.3974 -0.0864
   37SOL    HW1  152   1.324   1.308   0.271  1.8081  1.2352 -0.3517
   37SOL    HW2  153   1.348   1.385   0.399  1.8828  0.4564  0.1109
   38SOL     OW  154   1.784   1.805   0.326 -0.1697  0.2222  0.1016
   38SOL    HW1  155   1.816   1.739   0.387  0.2918  0.7831  0.4821
   38SOL    HW2  156   1.836   1.792   0.247 -0.4582 -0.2181 -0.0168
   39SOL     OW  157   0.363   0.834   0.056  0.4906  0.2127 -0.0334
   39SOL    HW1  158   0.448   0.839   0.012  0.3139  0.3205 -0.3710
   39SOL    HW2  159   0.314   0.767   0.007  0.2091  0.5004 -0.1561
   40SOL     OW  160   1.274   4.785   0.847 -0.1272 -0.1598  0.2887
   40SOL    HW1  161   1.275   4.701   0.800 -2.5600 -0.5322  0.7394
   40SOL    HW2  162   1.282   4.851   0.778 -3.2394 -0.6999 -0.7574
   41SOL     OW  163   1.662   1.371   0.278  0.4117  0.2982  0.7507
   41SOL    HW1  164   1.686   1.295   0.332  1.2598  1.0099  1.3976
   41SOL    HW2  165   1.610   1.427   0.336 -0.3270  0.1640  0.2347
   42SOL     OW  166   0.886   4.773   1.159 -0.0202 -0.8744  0.2351
   42SOL    HW1  167   0.836   4.791   1.239  1.0437  0.2046  0.6922
   42SOL    HW2  168   0.825   4.794   1.088 -0.2054  0.5946  0.7834
   43SOL     OW  169   1.371   4.952   1.602 -0.3547  0.3380 -0.5335
   43SOL    HW1  170   1.361   4.923   1.693  1.3722  0.4998 -0.2561
   43SOL    HW2  171   1.281   4.957   1.568 -1.0808  0.7792  1.3146
   44SOL     OW  172   1.136   4.929   1.437  0.9969  0.3244 -0.3847
   44SOL    HW1  173   1.163   4.997   1.375  2.6221 -0.1973 -0.2907
   44SOL    HW2  174   1.052   4.961   1.472  0.9771  1.5293 -1.4518
   45SOL     OW  175   1.118   4.654   1.072  0.1894 -0.2639 -0.1739
   45SOL    HW1  176   1.029   4.678   1.098 -0.5546 -0.5999 -2.2080
   45SOL    HW2  177   1.146   4.725   1.013  0.7514 -0.7875 -0.5579
   46SOL     OW  178   1.099   1.119   0.261  0.2111  0.3508 -0.2528
   46SOL    HW1  179   1.170   1.130   0.197 -1.3110 -1.9206 -2.5768
   46SOL    HW2  180   1.113   1.032   0.297  0.4845  1.2330  1.9346
   47SOL     OW  181   4.866   0.904   0.921 -0.0232 -0.3957 -0.0003
   47SOL    HW1  182   4.944   0.941   0.879 -0.2518  0.3033  0.1699
   47SOL    HW2  183   4.801   0.974   0.915 -0.5416 -0.8596  0.1377
   48SOL     OW  184   4.369   1.605   1.555  0.0359  0.4911 -0.1976
   48SOL    HW1  185   4.355   1.566   1.468  0.7519 -1.3953  0.4759
   48SOL    HW2  186   4.280   1.617   1.589 -0.3252  2.6144 -1.6973
   49SOL     OW  187   0.649   0.346   0.331 -0.1534 -0.0685  0.1135
   49SOL    HW1  188   0.696   0.419   0.291 -0.0267 -0.0940  0.2174
   49SOL    HW2  189   0.575   0.330   0.271  0.0847 -0.1607 -0.1576
   50SOL     OW  190   2.149   5.335   1.673  0.0389 -0.2175  0.6792
   50SOL    HW1  191   2.129   5.413   1.725  0.5425  0.4837 -0.1604
   50SOL    HW2  192   2.224   5.360   1.620 -0.3199 -0.9944 -0.2191
   51SOL     OW  193   1.091   0.994   0.564 -0.2940  0.4364 -0.0142
   51SOL    HW1  194   1.057   0.995   0.653 -0.7962  1.4818 -0.1954
   51SOL    HW2  195   1.013   0.988   0.508  0.0839 -2.1256 -0.3994
   52SOL     OW  196   0.916   4.346   0.892 -0.0297  0.8212 -0.4714
   52SOL    HW1  197   0.860   4.413   0.854 -1.7934 -0.4587 -0.2270
   52SOL    HW2  198   0.980   4.326   0.824  0.2831  2.4376 -0.6831
   53SOL     OW  199   0.665   1.463   0.651 -0.2435 -0.2735  0.3278
   53SOL    HW1  200   0.639   1.381   0.610  1.0095 -0.3005 -0.4819
   53SOL    HW2  201   0.582   1.506   0.674 -1.0570 -0.3113 -2.1635
   54SOL     OW  202   4.551   1.839   1.041  0.7280 -0.1333 -0.0256
   54SOL    HW1  203   4.581   1.761   1.087  1.2764 -0.9039 -1.6238
   54SOL    HW2  204   4.619   1.856   0.975 -0.1004  0.8230 -0.6713
   55SOL     OW  205   1.479   0.943   0.728  0.0551 -0.2883  0.1799
   55SOL    HW1  206   1.453   0.996   0.652 -1.1413  0.0418  0.8063
   55SOL    HW2  207   1.567   0.976   0.751 -0.3542  0.9142  0.0985
   56SOL     OW  208   5.480   2.000   1.747 -0.3456  0.9401 -0.0786
   56SOL    HW1  209   5.539   1.924   1.743 -0.5337  0.8405 -1.9893
   56SOL    HW2  210   5.523   2.060   1.807  1.2246  0.4418 -0.6297
   57SOL     OW  211   4.544   1.310   0.898  0.3739  0.3962  0.2150
   57SOL    HW1  212   4.500   1.288   0.980  2.1042  0.0215  1.0921
   57SOL    HW2  213   4.505   1.252   0.832 -1.9134  1.5470  0.4598
   58SOL     OW  214   1.420   0.673   0.668  0.2077 -0.4720 -0.0296
   58SOL    HW1  215   1.489   0.638   0.723  0.6412 -0.2261 -0.4047
   58SOL    HW2  216   1.425   0.768   0.680  0.8368 -0.3593 -1.0941
   59SOL     OW  217   4.961   5.525   1.898 -0.0659  0.3993 -0.4594
   59SOL    HW1  218   4.979   5.611   1.859  0.2488 -0.8699 -3.3660
   59SOL    HW2  219   5.046   5.498   1.934  0.1152  0.8095 -0.5620
   60SOL     OW  220   0.520   1.825   0.076 -0.1874  0.3807 -0.0228
   60SOL    HW1  221   0.486   1.796  -0.008 -1.7776 -0.3547  0.8412
   60SOL    HW2  222   0.452   1.802   0.139  1.8812 -1.0932  1.8031
   61SOL     OW  223   4.829   4.923   1.617 -0.4755 -0.2526  0.6673
   61SOL    HW1  224   4.739   4.921   1.585 -0.4506  0.0084  0.5777
   61SOL    HW2  225   4.836   4.847   1.675 -0.3012 -1.1874 -0.5312
   62SOL     OW  226   1.053   1.547   0.267  0.1751  0.2331 -0.3324
   62SOL    HW1  227   1.052   1.493   0.188  0.0184  1.3595 -1.1205
   62SOL    HW2  228   1.069   1.636   0.236 -0.2192  0.7534  0.8754
   63SOL     OW  229   0.451   1.735   0.462 -0.2820 -0.0701 -0.1122
   63SOL    HW1  230   0.381   1.716   0.525  2.4539  0.6732  3.4909
   63SOL    HW2  231   0.461   1.654   0.412 -2.5486 -0.7476  0.4067
   64SOL     OW  232   1.627   4.680   0.765  0.1520  0.2892  0.0759
   64SOL    HW1  233   1.554   4.618   0.769 -1.3264  1.9862  0.4899
   64SOL    HW2  234   1.696   4.633   0.717 -0.3215 -2.1966  1.6507
   65SOL     OW  235   4.075   1.674   0.891  0.4828 -0.2561  0.1037
   65SOL    HW1  236   4.165   1.643   0.902  0.7268 -0.0202 -1.0702
   65SOL    HW2  237   4.022   1.612   0.940  1.1927 -1.0563 -0.1130
   66SOL     OW  238   4.874   1.496   1.064  0.2534 -0.1252 -0.4126
   66SOL    HW1  239   4.887   1.446   1.144  0.3783 -0.6394 -0.7531
   66SOL    HW2  240   4.961   1.500   1.023 -0.0009 -0.7321 -1.0266
   67SOL     OW  241   0.671   0.607   0.555 -0.1167 -0.0532 -0.4681
   67SOL    HW1  242   0.686   0.513   0.546  0.8471  0.0601 -0.1942
   67SOL    HW2  243   0.576   0.616   0.561 -0.2801 -0.9147 -1.4638
   68SOL     OW  244   1.724   4.964   1.681  0.2706 -0.3849  0.3246
   68SOL    HW1  245   1.748   4.933   1.768 -0.8673 -1.2081  0.3706
   68SOL    HW2  246   1.711   5.058   1.691 -0.1552 -0.5225  1.1208
   69SOL     OW  247   4.595   4.355   0.442 -0.3668 -0.0086  0.3977
   69SOL    HW1  248   4.655   4.336   0.370 -0.4583 -0.6661  0.4839
   69SOL    HW2  249   4.583   4.271   0.486  0.8627  0.6611  2.0968
   70SOL     OW  250   5.378   4.573   1.729 -0.4315  0.6429  0.2886
   70SOL    HW1  251   5.463   4.610   1.702 -1.0817  0.5494 -2.0529
   70SOL    HW2  252   5.314   4.618   1.675 -1.5334 -1.8389 -0.6221
   71SOL     OW  253   1.145   1.155   1.201  0.7154 -0.4669  0.1994
   71SOL    HW1  254   1.188   1.087   1.149  1.2491 -0.5119  0.6880
   71SOL    HW2  255   1.214   1.190   1.257  0.2924  0.0128  0.4297
   72SOL     OW  256   1.589   4.722   1.286  0.4995 -0.3143 -0.0466
   72SOL    HW1  257   1.609   4.733   1.193 -0.9613  0.0278 -0.3354
   72SOL    HW2  258   1.517   4.658   1.288 -0.8866  1.2100  0.6901
   73SOL     OW  259   0.906   1.295   1.152  0.0709  0.2638  0.5740
   73SOL    HW1  260   0.941   1.346   1.225 -2.5812  0.6752  1.6494
   73SOL    HW2  261   0.969   1.223   1.142  0.8823  0.5718  2.8154
   74SOL     OW  262   1.224   4.595   0.652 -0.2747  0.0269 -0.3044
   74SOL    HW1  263   1.222   4.635   0.565 -3.5808 -0.1272 -0.4055
   74SOL    HW2  264   1.177   4.512   0.642  0.1036 -0.4502  1.4479
   75SOL     OW  265   0.627   4.118   0.838  0.5645 -0.3745 -0.0670
   75SOL    HW1  266   0.641   4.210   0.862 -2.5002  0.2571 -0.2643
   75SOL    HW2  267   0.586   4.079   0.915  0.5404 -1.1981 -0.4900
   76SOL     OW  268   1.269   1.278   0.091  0.0847 -0.2135 -0.0490
   76SOL    HW1  269   1.194   1.337   0.088 -0.4794 -0.8289  1.2026
   76SOL    HW2  270   1.272   1.239   0.004 -0.0882  0.9555 -0.6089
   77SOL     OW  271   4.188   4.325   0.636 -0.2243 -0.3803  0.4793
   77SOL    HW1  272   4.096   4.326   0.610 -0.0498 -0.9602 -0.2222
   77SOL    HW2  273   4.235   4.360   0.560  0.3359 -2.4540 -0.2046
   78SOL     OW  274   0.800   0.522   0.173  0.0701  0.1648 -0.1964
   78SOL    HW1  275   0.797   0.509   0.078 -0.2469  2.9258 -0.6693
   78SOL    HW2  276   0.862   0.595   0.185 -0.8251  0.6933  1.5699
   79SOL     OW  277   5.236   4.650   1.509  0.0035 -0.1570 -0.2708
   79SOL    HW1  278   5.319   4.683   1.473 -1.3157 -0.3151 -3.9468
   79SOL    HW2  279   5.216   4.573   1.454 -2.4515 -0.2399  0.6409
   80SOL     OW  280   1.459   1.467   1.181  0.2000  0.1069  0.1449
   80SOL    HW1  281   1.548   1.501   1.172 -0.4144  1.2200 -2.5966
   80SOL    HW2  282   1.408   1.543   1.209  0.0973 -0.6055  2.0447
   81SOL     OW  283   0.699   1.010   0.733  0.0386 -0.2641 -0.2275
   81SOL    HW1  284   0.755   0.939   0.705 -0.7097 -0.6331 -0.8311
   81SOL    HW2  285   0.751   1.089   0.719  0.6640 -0.6493 -0.0865
   82SOL     OW  286   1.242   1.473   0.965  0.2741  0.0186 -0.0510
   82SOL    HW1  287   1.163   1.519   0.936 -0.0475 -0.4814  0.0104
   82SOL    HW2  288   1.214   1.426   1.043  0.5361 -0.4595 -0.2413
   83SOL     OW  289   2.713   2.612   3.037 -0.4021 -0.3554 -0.3690
   83SOL    HW1  290   2.667   2.663   2.971 -1.2733  1.7528  1.7209
   83SOL    HW2  291   2.799   2.594   2.998  0.5467  4.0298 -0.8244
   84SOL     OW  292   4.534   4.630   1.440 -0.4863 -0.4222  0.2930
   84SOL    HW1  293   4.539   4.725   1.442 -1.5176 -0.3472  0.1505
   84SOL    HW2  294   4.621   4.601   1.413 -0.2009  0.4798  0.2178
   85SOL     OW  295   4.761   4.314   0.975  0.2586 -0.0238  0.2484
   85SOL    HW1  296   4.846   4.323   1.017  0.1647  0.7371  0.2925
   85SOL    HW2  297   4.720   4.240   1.019  1.6530 -1.6816 -1.0827
   86SOL     OW  298   0.826   0.776   0.673 -0.0418 -0.0586 -0.0213
   86SOL    HW1  299   0.918   0.755   0.657  0.2219  0.1663  1.1153
   86SOL    HW2  300   0.778   0.702   0.637  0.3485  1.0694 -3.2440
   87SOL     OW  301   1.064   3.928   1.008 -0.0178 -0.1347 -0.2582
   87SOL    HW1  302   0.984   3.961   0.967 -0.5104 -1.7251 -0.6451
   87SOL    HW2  303   1.034   3.865   1.073  0.8764  0.4489  0.7501
   88SOL     OW  304   1.745   0.594   0.588  0.0637 -0.6607 -0.1123
   88SOL    HW1  305   1.695   0.586   0.668  0.9724  0.0689  0.5554
   88SOL    HW2  306   1.761   0.688   0.579  0.1373 -0.7509 -1.0439
   89SOL     OW  307   1.458   4.813   1.044  0.1856  0.0803  0.3098
   89SOL    HW1  308   1.414   4.858   1.115  0.0579 -0.2048  0.4107
   89SOL    HW2  309   1.387   4.776   0.991  0.2780 -2.3669  1.7312
   90SOL     OW  310   2.224   0.343   0.333  0.0864 -0.2598 -0.1778
   90SOL    HW1  311   2.286   0.408   0.366  1.8717 -1.9157 -0.0807
   90SOL    HW2  312   2.189   0.380   0.252  2.2633  0.1691 -0.9700
   91SOL     OW  313   0.736   0.910   0.118  0.2541  0.0894  0.4082
   91SOL    HW1  314   0.679   0.854   0.171  0.9421 -0.5817  0.4765
   91SOL    HW2  315   0.678   0.974   0.078 -0.5325 -0.5386  0.5220
   92SOL     OW  316   1.632   1.090   0.406  0.1328  0.2874  0.4795
   92SOL    HW1  317   1.542   1.080   0.436  0.2277  0.8058  0.9623
   92SOL    HW2  318   1.627   1.082   0.311 -0.5855  1.3873  0.4053
   93SOL     OW  319   3.387   2.257   2.871 -0.0030 -0.0148 -0.0682
   93SOL    HW1  320   3.431   2.178   2.839 -1.8610 -0.3137 -2.0065
   93SOL    HW2  321   3.313   2.225   2.922 -1.0000  0.4437 -1.1922
   94SOL     OW  322   4.367   4.482   0.484 -0.0296  0.1623 -0.0100
   94SOL    HW1  323   4.457   4.466   0.455  0.7174  0.2960  2.1034
   94SOL    HW2  324   4.370   4.568   0.525 -0.8131 -0.3882  1.2483
   95SOL     OW  325   5.587   5.272   1.905  0.2909  0.0368  0.4921
   95SOL    HW1  326   5.538   5.353   1.891  0.1716 -0.3790 -1.9927
   95SOL    HW2  327   5.553   5.212   1.839  1.2400 -1.6420  1.4737
   96SOL     OW  328   5.230   1.299   1.692 -0.2250 -0.5859  0.5585
   96SOL    HW1  329   5.293   1.371   1.694  0.3482 -1.0673  0.3852
   96SOL    HW2  330   5.145   1.340   1.708 -0.0136  0.2461 -0.3411
   97SOL     OW  331   1.431   1.527   1.732 -0.5117 -0.0540  0.1302
   97SOL    HW1  332   1.452   1.501   1.822 -0.1888  2.0141  0.6984
   97SOL    HW2  333   1.474   1.462   1.677 -0.2166 -1.0105  1.4608
   98SOL     OW  334   1.453   1.257   0.968  0.3903 -0.3272  0.2812
   98SOL    HW1  335   1.429   1.325   1.031 -3.2498  1.0638 -2.2602
   98SOL    HW2  336   1.528   1.293   0.921 -0.0326  0.8949  0.5030
   99SOL     OW  337   1.259   1.020   1.004  0.2389 -0.3082 -0.3714
   99SOL    HW1  338   1.246   1.005   0.911  0.7477 -2.4048 -0.1527
   99SOL    HW2  339   1.335   1.078   1.009 -0.2444  0.4242 -1.2570
  100SOL     OW  340   1.451   4.440   0.737 -0.5127 -0.0081 -0.3519
  100SOL    HW1  341   1.360   4.465   0.718 -0.7723 -0.6924 -0.0426
  100SOL    HW2  342   1.447   4.397   0.823  0.0379 -0.3880 -0.5083
  101SOL     OW  343   5.323   5.306   1.692  0.4091 -0.0517 -0.5176
  101SOL    HW1  344   5.305   5.380   1.750  2.1928  0.0285  0.0170
  101SOL    HW2  345   5.337   5.233   1.751 -1.6151 -0.9311 -1.0554
  102SOL     OW  346   0.812   1.202   0.503  0.6967  0.8716 -0.2326
  102SOL    HW1  347   0.887   1.251   0.469  1.6947 -0.1525  0.4433
  102SOL    HW2  348   0.829   1.112   0.477 -0.3587  0.6322 -0.1329
  103SOL     OW  349   4.936   5.302   1.544 -0.2075  0.3998  0.3998
  103SOL    HW1  350   4.904   5.385   1.579  0.6736  1.1610 -0.5250
  103SOL    HW2  351   4.932   5.313   1.449 -0.7386 -0.8891  0.2441
  104SOL     OW  352   1.269   4.692   1.466  0.0381  0.1478  0.6426
  104SOL    HW1  353   1.328   4.749   1.515  0.7961  1.4292 -1.6065
  104SOL    HW2  354   1.199   4.750   1.436 -0.6111 -0.6762  0.5165
  105SOL     OW  355   3.835   1.720   1.281 -0.0950  0.0680  0.3813
  105SOL    HW1  356   3.908   1.728   1.344 -0.0737 -0.5068  0.4384
  105SOL    HW2  357   3.878   1.701   1.198 -0.1688 -0.0362  0.3677
  106SOL     OW  358   4.424   1.463   0.540  0.1321  0.3416 -0.1833
  106SOL    HW1  359   4.493   1.398   0.554 -0.0932 -0.1955 -1.3654
  106SOL    HW2  360   4.391   1.443   0.452 -1.8040  0.3236  0.5057
  107SOL     OW  361   0.907   4.618   0.760 -0.2138  0.3269 -0.0021
  107SOL    HW1  362   0.860   4.605   0.677 -0.4850 -1.0007  0.3331
  107SOL    HW2  363   0.982   4.672   0.736  1.0382 -1.9337 -1.6304
  108SOL     OW  364   1.041   1.326   0.421 -0.5237  0.3817 -0.9527
  108SOL    HW1  365   1.105   1.270   0.377  0.2582  0.5324 -0.0319
  108SOL    HW2  366   1.079   1.413   0.418 -0.1185  0.2836  0.6085
  109SOL     OW  367   1.339   1.687   1.318  0.0266 -0.1618 -0.1789
  109SOL    HW1  368   1.252   1.727   1.313 -0.2779 -0.5196  1.5489
  109SOL    HW2  369   1.398   1.751   1.277 -0.7981  0.9104  0.2630
  110SOL     OW  370   2.199   0.590   0.195 -0.3053 -1.1993 -0.4479
  110SOL    HW1  371   2.117   0.611   0.240 -0.2384 -1.5607 -0.1531
  110SOL    HW2  372   2.219   0.669   0.144  1.2206  0.5683  2.5557
  111SOL     OW  373   4.692   1.679   1.437 -0.0762  0.2442  0.5839
  111SOL    HW1  374   4.667   1.768   1.465  2.3793  1.4965 -0.8480
  111SOL    HW2  375   4.677   1.679   1.343  1.4030 -0.3105  0.3292
  112SOL     OW  376   4.551   5.001   1.252  0.3101  0.2859  0.1835
  112SOL    HW1  377   4.522   5.077   1.201  1.2142 -1.0570 -2.5276
  112SOL    HW2  378   4.645   4.996   1.236  0.6600 -0.1215  2.1918
  113SOL     OW  379   1.859   5.403   1.805 -0.1205  0.6258  0.1905
  113SOL    HW1  380   1.805   5.426   1.881 -0.0620 -2.3855  1.2714
  113SOL    HW2  381   1.942   5.447   1.820 -0.3202  0.5684  1.5726
  114SOL     OW  382   1.338   3.859   1.019 -0.0270 -0.2137 -0.3181
  114SOL    HW1  383   1.343   3.826   1.108 -2.7197  0.1912  0.0646
  114SOL    HW2  384   1.245   3.878   1.005  0.3843  0.2650 -3.0253
  115SOL     OW  385   5.018   4.512   1.604 -0.3442  0.5524  0.2287
  115SOL    HW1  386   5.036   4.426   1.643  0.4091  0.7411  0.3139
  115SOL    HW2  387   5.100   4.559   1.612 -1.0035  1.6133  0.9925
  116SOL     OW  388   5.051   4.912   1.370  0.4533 -0.3332  0.7120
  116SOL    HW1  389   5.073   4.844   1.434 -1.7654 -0.1372  1.7851
  116SOL    HW2  390   5.075   4.994   1.414 -0.8729 -0.2115  1.2467
  117SOL     OW  391   0.989   0.730   0.967  0.4798 -0.5428  0.2364
  117SOL    HW1  392   0.893   0.729   0.976  0.3526  1.5048 -0.2650
  117SOL    HW2  393   1.004   0.727   0.872  0.8576  0.2208  0.2657
  118SOL     OW  394   1.045   0.673   0.168 -0.4550 -0.1053 -0.1710
  118SOL    HW1  395   1.111   0.695   0.233 -1.6953 -0.2953  1.2172
  118SOL    HW2  396   1.044   0.748   0.108  0.0483  0.5273  0.5981
  119SOL     OW  397   4.578   4.235   1.208  0.1478 -0.0347 -0.1132
  119SOL    HW1  398   4.551   4.310   1.154 -0.6913  0.4110  0.8975
  119SOL    HW2  399   4.609   4.275   1.289  3.0691 -0.5685 -0.8344
  120SOL     OW  400   4.348   1.162   1.348  0.3224 -0.4054  0.2499
  120SOL    HW1  401   4.281   1.111   1.304  2.1330 -2.6054 -0.1200
  120SOL    HW2  402   4.313   1.177   1.436 -0.7976 -1.1644 -0.0443
  121SOL     OW  403   0.683   0.657   0.925 -0.1730  0.0020 -0.0175
  121SOL    HW1  404   0.705   0.689   0.838 -1.0536  0.7530  0.0200
  121SOL    HW2  405   0.625   0.724   0.962  0.9627  0.1922  1.5353
  122SOL     OW  406   2.120   5.556   1.819 -0.2718  0.2381 -0.1973
  122SOL    HW1  407   2.074   5.605   1.888 -0.5810  1.0278 -0.9414
  122SOL    HW2  408   2.212   5.583   1.829 -0.1088 -0.5785  0.6586
  123SOL     OW  409   4.818   4.517   0.795  0.1947 -0.2735 -0.5222
  123SOL    HW1  410   4.868   4.579   0.848  0.2657  0.5603 -1.5312
  123SOL    HW2  411   4.783   4.454   0.858  1.6850 -0.3054  0.3205
  124SOL     OW  412   1.688   0.453   0.376 -0.0165  0.1606 -0.2305
  124SOL    HW1  413   1.721   0.503   0.451  1.0957  0.3741 -0.8352
  124SOL    HW2  414   1.597   0.480   0.368 -0.7111 -1.1397  2.0703
  125SOL     OW  415   1.180   5.000   1.148  0.0987  0.0486  0.1646
  125SOL    HW1  416   1.163   4.907   1.133  1.2564 -0.4540  1.6830
  125SOL    HW2  417   1.111   5.045   1.100 -0.1818 -1.5716 -1.0345
  126SOL     OW  418   5.372   1.717   1.842 -0.1843  0.0423  0.2213
  126SOL    HW1  419   5.453   1.768   1.838 -0.8866  1.2836  0.9999
  126SOL    HW2  420   5.380   1.664   1.921 -0.1355  0.1770  0.3072
  127SOL     OW  421   1.804   1.511   1.885 -0.1008  0.2958 -0.1541
  127SOL    HW1  422   1.709   1.498   1.890  0.1900 -1.9058  0.7624
  127SOL    HW2  423   1.830   1.469   1.803  0.3513 -1.6067  0.8868
  128SOL     OW  424   5.230   5.394   1.965 -0.2521 -0.2686  0.0577
  128SOL    HW1  425   5.244   5.326   2.031 -2.0077  0.0294  0.8042
  128SOL    HW2  426   5.173   5.353   1.899  0.7743 -0.2910 -0.8419
  129SOL     OW  427   1.409   0.190   0.031  0.2010  0.6412 -0.2035
  129SOL    HW1  428   1.326   0.189  -0.016  0.5818  0.3770 -0.8940
  129SOL    HW2  429   1.443   0.279   0.020 -0.9659  1.4256  1.8984
  130SOL     OW  430   1.483   0.604   0.074  0.0057  0.1852  0.1784
  130SOL    HW1  431   1.406   0.659   0.090 -0.2718 -0.4055  0.9055
  130SOL    HW2  432   1.450   0.533   0.019  0.4175  0.8649 -0.9663
  131SOL     OW  433   0.797   1.506   0.990 -0.0636 -0.1037  0.4078
  131SOL    HW1  434   0.798   1.432   1.051 -1.6167  1.0433  1.9377
  131SOL    HW2  435   0.881   1.549   1.003  0.9005 -1.6112 -0.5802
  132SOL     OW  436   4.736   0.583   0.556  0.6885 -0.2177  0.3736
  132SOL    HW1  437   4.706   0.495   0.534  1.5295 -0.0772 -1.5230
  132SOL    HW2  438   4.690   0.605   0.637  0.6996 -2.5121  1.0668
  133SOL     OW  439   4.422   4.680   0.725 -0.1562  0.0459 -0.0487
  133SOL    HW1  440   4.510   4.672   0.687 -0.3870  0.2365 -0.6271
  133SOL    HW2  441   4.377   4.742   0.669 -0.9519 -0.7193 -0.2908
  134SOL     OW  442   1.565   4.542   1.601  0.1911 -0.0701  0.4729
  134SOL    HW1  443   1.505   4.598   1.650  1.4618  2.4929 -0.6980
  134SOL    HW2  444   1.527   4.538   1.513  0.5577 -0.2972  0.3234
  135SOL     OW  445   1.235   4.412   1.182 -0.7106 -0.0563 -0.0987
  135SOL    HW1  446   1.189   4.493   1.157 -1.3814 -0.6652 -0.9201
  135SOL    HW2  447   1.178   4.342   1.150 -0.0380 -0.8555  0.4170
  136SOL     OW  448   4.363   1.456   0.006  0.8605 -0.0697 -0.5795
  136SOL    HW1  449   4.390   1.545  -0.019 -1.4840  0.4397 -1.5622
  136SOL    HW2  450   4.383   1.402  -0.071  0.4730  0.0096 -0.7375
  137SOL     OW  451   3.920   1.521   1.052  0.5495 -0.0295  0.0445
  137SOL    HW1  452   3.912   1.438   1.099 -1.2969  1.8257  3.3835
  137SOL    HW2  453   3.837   1.530   1.005  0.8290 -0.1246 -0.4756
  138SOL     OW  454   4.325   1.586   1.011 -0.2798 -0.3093  0.1400
  138SOL    HW1  455   4.415   1.579   1.045 -0.7020 -1.1044  1.1380
  138SOL    HW2  456   4.315   1.510   0.954 -1.1158 -1.6785  2.0134
  139SOL     OW  457   1.450   5.058   1.360  1.2210 -0.0385  0.1105
  139SOL    HW1  458   1.456   5.018   1.448  2.3165 -3.1974 -1.2303
  139SOL    HW2  459   1.538   5.092   1.344  1.6326 -1.2840 -0.4527
  140SOL     OW  460   4.795   4.702   1.149  0.0522 -0.5187 -0.5080
  140SOL    HW1  461   4.866   4.683   1.087 -0.5011 -1.4100 -0.8795
  140SOL    HW2  462   4.797   4.630   1.212 -0.3180 -0.3806 -0.3337
  141SOL     OW  463   4.607   4.674   1.717 -0.0970  0.8401 -0.3182
  141SOL    HW1  464   4.702   4.663   1.724 -0.0396 -0.2393 -2.1422
  141SOL    HW2  465   4.595   4.733   1.643 -0.8716  0.2460 -0.6774
  142SOL     OW  466   1.198   5.394   1.538 -0.1478  0.7077 -0.0551
  142SOL    HW1  467   1.127   5.352   1.587  0.1433  1.3953  1.0057
  142SOL    HW2  468   1.170   5.485   1.528  1.1844  1.3898  1.7275
  143SOL     OW  469   0.860   0.940   0.436  0.5686 -0.0900 -0.2586
  143SOL    HW1  470   0.828   0.907   0.353  1.3754 -2.2960  0.2364
  143SOL    HW2  471   0.825   0.879   0.501  0.9911  0.8483  0.8802
  144SOL     OW  472   1.501   0.834   1.022 -0.8447 -0.3047 -0.0055
  144SOL    HW1  473   1.477   0.827   0.930 -1.6343  1.4838  0.0300
  144SOL    HW2  474   1.596   0.820   1.024 -0.7223  0.2617 -1.1701
  145SOL     OW  475   4.686   5.592   1.885 -0.0364 -0.1678  0.2487
  145SOL    HW1  476   4.668   5.682   1.910 -1.3593 -0.5324  0.7278
  145SOL    HW2  477   4.778   5.578   1.907  0.0922  0.9599  0.4645
  146SOL     OW  478   5.001   4.705   0.934  0.2597 -0.2743 -0.2738
  146SOL    HW1  479   5.070   4.682   0.872  2.5593 -1.1050  2.3705
  146SOL    HW2  480   4.996   4.801   0.929  0.6818 -0.2927 -1.4232
  147SOL     OW  481   1.064   1.678   1.281  0.2987 -0.1467 -0.0895
  147SOL    HW1  482   1.013   1.739   1.335 -1.4137  0.6889 -2.4808
  147SOL    HW2  483   1.025   1.592   1.300  0.9864 -0.1710  1.3545
  148SOL     OW  484   4.740   1.138   1.038  0.0928 -0.0996 -0.5384
  148SOL    HW1  485   4.828   1.156   1.074 -0.1228 -0.9072  0.4547
  148SOL    HW2  486   4.709   1.223   1.009  1.1244  0.2394 -0.7061
  149SOL     OW  487   0.848   0.995   1.030 -0.4984 -0.4851  0.3713
  149SOL    HW1  488   0.885   0.989   1.118  0.4478 -0.2944 -0.0034
  149SOL    HW2  489   0.769   1.048   1.041 -0.0338  0.0978  1.0035
  150SOL     OW  490   1.763   0.610   0.040 -0.5546 -0.8009 -0.1528
  150SOL    HW1  491   1.784   0.701   0.059 -2.3628 -0.3269 -0.2211
  150SOL    HW2  492   1.668   0.604   0.053 -1.1141 -1.7597 -3.6047
  151SOL     OW  493   1.718   1.897   1.144 -0.0871 -0.1324 -0.0362
  151SOL    HW1  494   1.623   1.888   1.155 -0.2682  1.1829 -0.2902
  151SOL    HW2  495   1.728   1.943   1.061  0.8082 -0.8235 -0.3160
  152SOL     OW  496   1.453   1.836   1.075  0.0495 -0.2546  0.0650
  152SOL    HW1  497   1.374   1.889   1.074 -0.4863 -1.0304 -0.4706
  152SOL    HW2  498   1.480   1.832   0.983  0.6730 -0.0584  0.2349
  153SOL     OW  499   4.283   1.543   1.291  0.1447  0.1872 -0.2785
  153SOL    HW1  500   4.272   1.512   1.201  0.3530  1.4418 -0.7480
  153SOL    HW2  501   4.210   1.504   1.339  0.7827 -1.6144 -0.6691
  154SOL     OW  502   5.033   1.807   1.759  0.3608  0.3815 -0.3624
  154SOL    HW1  503   4.941   1.833   1.757  0.6171  1.3071 -0.8630
  154SOL    HW2  504   5.041   1.741   1.691 -0.0087 -0.0076 -0.0379
  155SOL     OW  505   0.655   4.351   0.120  0.0623  0.2965  0.2172
  155SOL    HW1  506   0.562   4.328   0.119  0.0413  0.3849 -0.5035
  155SOL    HW2  507   0.699   4.274   0.086  0.4307 -0.3959  2.1328
  156SOL     OW  508   1.504   4.490   0.374 -0.1561  0.0130 -0.1801
  156SOL    HW1  509   1.556   4.478   0.294  2.1193  0.7974  1.0651
  156SOL    HW2  510   1.509   4.406   0.419 -1.5271 -0.4621 -0.8870
  157SOL     OW  511   1.007   1.680   1.014 -0.0003  0.4147  0.1520
  157SOL    HW1  512   1.032   1.692   1.106  0.3578 -0.9837  0.2703
  157SOL    HW2  513   1.064   1.740   0.966  0.4550  0.5016  0.7821
  158SOL     OW  514   4.396   1.910   1.987  0.0677  0.1301 -0.0822
  158SOL    HW1  515   4.419   1.867   1.905 -0.7148  0.5527 -0.5328
  158SOL    HW2  516   4.303   1.932   1.978  0.6067  2.6799 -0.2341
  159SOL     OW  517   1.351   0.795   0.364  0.0633  0.3078  0.0833
  159SOL    HW1  518   1.348   0.875   0.417  0.7891  0.5425 -0.2255
  159SOL    HW2  519   1.358   0.826   0.274  3.0738 -0.0583  0.0999
  160SOL     OW  520   5.158   1.155   1.468  0.2184  0.8595 -0.6868
  160SOL    HW1  521   5.181   1.173   1.559  3.3902 -1.5867 -0.8405
  160SOL    HW2  522   5.206   1.221   1.418 -0.8133  1.6383 -0.6963
  161SOL     OW  523   0.730   1.876   0.265  0.2462 -0.0184  0.1487
  161SOL    HW1  524   0.675   1.833   0.200 -1.4767  1.0994  0.8101
  161SOL    HW2  525   0.735   1.813   0.337 -2.0510  0.6692  1.0038
  162SOL     OW  526   1.922   1.841   1.298  1.0227 -0.1499 -0.1582
  162SOL    HW1  527   1.855   1.846   1.230 -1.1198 -3.9202  1.3748
  162SOL    HW2  528   1.878   1.871   1.378  2.0807 -0.0496  0.4100
  163SOL     OW  529   2.133   4.480   0.973  0.0043 -0.0114 -0.1565
  163SOL    HW1  530   2.098   4.481   0.884 -1.4160 -2.8929  0.2293
  163SOL    HW2  531   2.163   4.390   0.985  0.4251  0.3836  2.1931
  164SOL     OW  532   4.659   4.620   0.588  0.0401  0.1032 -0.3274
  164SOL    HW1  533   4.722   4.578   0.646  1.3246  0.3040 -1.5395
  164SOL    HW2  534   4.624   4.548   0.535 -0.9152 -0.0328  0.4366
  165SOL     OW  535   1.065   1.790   0.172  0.2337 -0.0863  0.2526
  165SOL    HW1  536   0.988   1.759   0.124  1.1988 -3.0176  0.4061
  165SOL    HW2  537   1.132   1.801   0.104  0.5254 -0.5476  0.4598
  166SOL     OW  538   5.219   5.242   1.351 -0.2218  0.4297 -0.1896
  166SOL    HW1  539   5.129   5.215   1.329 -0.3317 -1.2911  1.9751
  166SOL    HW2  540   5.208   5.309   1.417  0.0784  0.2684  0.0236
  167SOL     OW  541   3.194   3.320   2.860 -0.3225 -0.2968  0.6225
  167SOL    HW1  542   3.105   3.286   2.863  0.0921 -1.3394  1.9876
  167SOL    HW2  543   3.220   3.312   2.768 -1.4393 -0.4589  0.3062
  168SOL     OW  544   3.446   4.000   3.000  0.2874 -0.0670 -0.5913
  168SOL    HW1  545   3.446   4.009   2.905 -2.2960  1.1766 -0.5733
  168SOL    HW2  546   3.461   4.089   3.032 -2.8335  0.3524  0.0168
  169SOL     OW  547   4.802   1.190   1.617  0.2330  0.2987 -0.6799
  169SOL    HW1  548   4.836   1.280   1.616 -1.7689  1.1011 -0.6657
  169SOL    HW2  549   4.712   1.198   1.650  0.1119 -1.7617 -0.3456
  170SOL     OW  550   1.282   1.345   1.376  0.2815 -0.0037 -0.3175
  170SOL    HW1  551   1.325   1.382   1.298  0.2192 -0.3197 -0.5046
  170SOL    HW2  552   1.329   1.383   1.450  0.7122 -0.1365 -0.5179
  171SOL     OW  553   1.360   1.061   0.497 -0.3775  0.0192 -0.3952
  171SOL    HW1  554   1.279   1.066   0.548 -1.6270 -1.3593 -2.1286
  171SOL    HW2  555   1.374   1.150   0.465  0.6015  1.0019  2.4480
  172SOL     OW  556   1.126   4.313   0.670  0.1405  0.4796  0.0246
  172SOL    HW1  557   1.049   4.257   0.659 -0.4594  0.8119  2.0426
  172SOL    HW2  558   1.191   4.278   0.610 -1.0886 -0.7476 -0.6346
  173SOL     OW  559   4.242   1.463   0.756  0.1470 -0.7083  0.2367
  173SOL    HW1  560   4.201   1.379   0.739 -2.3848  0.1999  1.2899
  173SOL    HW2  561   4.294   1.482   0.677  0.0075 -2.7775 -0.3932
  174SOL     OW  562   1.746   5.218   1.464 -0.2152  0.0369  0.1818
  174SOL    HW1  563   1.722   5.250   1.551  1.3889  1.4659  0.1371
  174SOL    HW2  564   1.753   5.297   1.410  2.3337 -0.4365 -0.3170
  175SOL     OW  565   0.471   1.508   0.290  0.4365 -0.2577  0.1129
  175SOL    HW1  566   0.455   1.436   0.352  0.4243  1.5665  2.3677
  175SOL    HW2  567   0.563   1.497   0.264  0.4486 -1.0565  0.4539
  176SOL     OW  568   4.677   5.193   1.571 -0.0044  0.4257  0.2813
  176SOL    HW1  569   4.625   5.232   1.501  1.3201 -0.3404 -1.1958
  176SOL    HW2  570   4.765   5.226   1.557  1.1424 -2.6775 -0.8631
  177SOL     OW  571   4.833   4.485   1.364 -0.2176  0.9637 -0.5557
  177SOL    HW1  572   4.757   4.427   1.370 -0.4378  1.3195  0.1352
  177SOL    HW2  573   4.879   4.474   1.448 -0.9377  2.7099  0.1100
  178SOL     OW  574   6.405   2.432   3.041  0.0922 -0.1182 -0.1773
  178SOL    HW1  575   6.381   2.476   2.959 -0.0379  0.7972  0.3396
  178SOL    HW2  576   6.500   2.439   3.045 -0.0745  3.8862  1.8627
  179SOL     OW  577   1.443   1.027   1.301 -0.1744  0.1978 -0.2933
  179SOL    HW1  578   1.446   1.076   1.383  0.1187 -1.5001  0.7621
  179SOL    HW2  579   1.521   1.055   1.253  0.7215 -0.1921  0.8913
  180SOL     OW  580   4.082   4.031   0.839 -0.2611 -0.3491  0.0867
  180SOL    HW1  581   4.173   4.059   0.829 -0.2353  1.5359  3.7979
  180SOL    HW2  582   4.032   4.088   0.780  0.6300  1.7841  1.2906
  181SOL     OW  583   0.750   1.452   0.253  1.1106 -0.1321  0.4782
  181SOL    HW1  584   0.813   1.427   0.321  0.3999 -0.0465  1.1792
  181SOL    HW2  585   0.761   1.385   0.184  3.3432  0.9654 -0.3380
  182SOL     OW  586   5.057   5.234   1.806  0.0847 -0.1901 -0.0561
  182SOL    HW1  587   5.010   5.245   1.723 -0.6942  0.0432  0.4045
  182SOL    HW2  588   4.992   5.198   1.866  0.2655  0.8651  0.8128
  183SOL     OW  589   1.210   1.985   1.382  0.6575 -0.1002  0.1676
  183SOL    HW1  590   1.291   1.959   1.428 -0.2049 -1.1972  1.1320
  183SOL    HW2  591   1.162   2.038   1.445  0.5083  0.3605 -0.3227
  184SOL     OW  592   5.044   5.048   2.301 -0.0652 -0.2366 -0.1944
  184SOL    HW1  593   5.087   5.070   2.383  1.9252 -3.8195 -0.0892
  184SOL    HW2  594   4.961   5.008   2.327 -0.4869  0.6884 -0.0818
  185SOL     OW  595   5.288   1.608   1.609 -0.4194 -0.2081 -0.5202
  185SOL    HW1  596   5.210   1.631   1.558  0.5407  1.5314 -1.2683
  185SOL    HW2  597   5.279   1.658   1.690  0.4227  0.8623 -1.0668
  186SOL     OW  598   4.565   1.395   1.610  0.7085 -0.1396  0.0906
  186SOL    HW1  599   4.543   1.485   1.586 -0.6144 -0.5047 -0.1167
  186SOL    HW2  600   4.510   1.375   1.686  1.7725 -0.4269  0.8099
  187SOL     OW  601   1.146   0.462  -0.002  0.4814  0.3095 -0.2820
  187SOL    HW1  602   1.110   0.515   0.068  0.2862  0.8281 -0.7647
  187SOL    HW2  603   1.131   0.514  -0.082  0.2365 -0.4910 -0.7697
  188SOL     OW  604   4.642   1.323   0.575 -0.0953  0.2918  0.5338
  188SOL    HW1  605   4.695   1.283   0.506 -0.7663  0.0503  0.1380
  188SOL    HW2  606   4.703   1.377   0.625  0.4136  0.4183 -0.2093
  189SOL     OW  607   1.468   5.383   1.596  0.2237 -0.4365 -0.3198
  189SOL    HW1  608   1.373   5.376   1.585  0.2376  0.4870 -1.1726
  189SOL    HW2  609   1.491   5.309   1.653 -1.0357 -0.4952  0.1384
  190SOL     OW  610   0.868   1.204   0.173  0.3650  0.3435  0.2494
  190SOL    HW1  611   0.955   1.206   0.212  0.1872 -1.3286  0.7804
  190SOL    HW2  612   0.843   1.112   0.174 -1.3934  0.7897  0.0630
  191SOL     OW  613   4.631   1.611   1.168  0.5694 -0.4257 -0.4320
  191SOL    HW1  614   4.609   1.534   1.221  0.8363 -0.2502 -0.0620
  191SOL    HW2  615   4.716   1.591   1.130  0.1487 -0.7706 -1.2268
  192SOL     OW  616   0.995   1.041   0.796 -0.1428 -0.0215 -0.3618
  192SOL    HW1  617   0.958   1.129   0.784  1.3476  0.9143  1.2563
  192SOL    HW2  618   0.962   1.013   0.881  1.0053 -0.1201  0.0740
  193SOL     OW  619   1.674   1.112   0.120 -0.6713  0.0648 -0.3990
  193SOL    HW1  620   1.617   1.108   0.043 -0.4247  0.4623 -0.6029
  193SOL    HW2  621   1.681   1.206   0.139 -0.5636 -0.0210 -0.0154
  194SOL     OW  622   1.693   1.348   0.676  0.2305 -0.0733 -0.0885
  194SOL    HW1  623   1.598   1.348   0.663  0.0994  3.3327  0.0068
  194SOL    HW2  624   1.705   1.375   0.767  1.2235  1.5266 -0.6481
  195SOL     OW  625   4.891   5.408   2.132  0.4020 -0.1707  0.1702
  195SOL    HW1  626   4.893   5.386   2.039  1.5933 -1.3094  0.4360
  195SOL    HW2  627   4.833   5.342   2.171  1.3971 -0.8832  0.4900
  196SOL     OW  628   4.245   1.727   0.398 -0.0132 -0.2796  0.2983
  196SOL    HW1  629   4.186   1.688   0.463  0.6515 -0.0742  1.0361
  196SOL    HW2  630   4.304   1.782   0.449  0.8037 -0.4581 -0.4335
  197SOL     OW  631   4.998   1.433   1.772 -1.0988 -0.4359  0.2551
  197SOL    HW1  632   4.997   1.482   1.855 -2.3309  0.3444 -0.1947
  197SOL    HW2  633   5.002   1.501   1.704  1.5440 -1.0955 -0.3538
  198SOL     OW  634   1.665   4.565   1.037  0.2574  0.0451 -0.4940
  198SOL    HW1  635   1.624   4.630   0.980  0.0477  1.7894  1.4872
  198SOL    HW2  636   1.601   4.494   1.041 -1.1513  1.2652 -0.0451
  199SOL     OW  637   0.694   4.628   0.594  0.0180  0.3112 -0.5431
  199SOL    HW1  638   0.659   4.631   0.505  0.3607 -2.3140 -0.8255
  199SOL    HW2  639   0.640   4.562   0.638  1.7345 -0.5612  0.3208
  200SOL     OW  640   1.712   1.423   0.947 -0.0167  0.7353  0.4517
  200SOL    HW1  641   1.712   1.474   1.029 -0.0591  0.4607  0.6236
  200SOL    HW2  642   1.801   1.431   0.914  0.2044  0.2149  0.9209
  201SOL     OW  643   5.142   4.946   1.817 -0.4524 -0.1261 -0.2902
  201SOL    HW1  644   5.083   4.881   1.779  1.0967 -0.4975 -2.2389
  201SOL    HW2  645   5.091   5.027   1.820 -1.6612 -0.8774 -0.0208
  202SOL     OW  646   4.749   1.532   0.737  0.1978  0.3160 -0.3500
  202SOL    HW1  647   4.697   1.611   0.723  1.5643  1.1005 -1.2667
  202SOL    HW2  648   4.743   1.516   0.831 -1.3882  0.5606 -0.3765
  203SOL     OW  649   1.426   4.517   1.351  0.3978 -0.0449 -0.2612
  203SOL    HW1  650   1.369   4.552   1.419 -0.7780 -1.6305 -0.3543
  203SOL    HW2  651   1.368   4.463   1.297  1.9617 -1.8098 -0.3095
  204SOL     OW  652   1.014   4.215   1.135  0.4740  0.0907  0.2436
  204SOL    HW1  653   1.057   4.137   1.101  1.8854  0.8692  0.1515
  204SOL    HW2  654   0.970   4.254   1.060  1.2884  0.3457 -0.1045
  205SOL     OW  655   0.536   1.252   0.435 -0.2870  0.1691  0.5934
  205SOL    HW1  656   0.516   1.227   0.345  0.8826  1.0737  0.0449
  205SOL    HW2  657   0.631   1.238   0.443 -0.3315  0.3465  1.6098
  206SOL     OW  658   5.045   1.664   1.299 -0.6984 -0.2222 -0.2842
  206SOL    HW1  659   5.021   1.756   1.309  0.7003  0.1332 -0.0865
  206SOL    HW2  660   5.087   1.659   1.213 -0.5304 -0.6304 -0.1830
  207SOL     OW  661   1.098   4.423   0.319  0.4268 -0.1920 -0.2132
  207SOL    HW1  662   1.139   4.510   0.325 -1.9827  0.9482  1.9877
  207SOL    HW2  663   1.006   4.442   0.302  0.0715 -2.4379 -1.0689
  208SOL     OW  664   1.343   0.542   0.455 -0.1158  0.5478 -0.1338
  208SOL    HW1  665   1.368   0.618   0.403  2.0319 -0.5106 -0.7523
  208SOL    HW2  666   1.363   0.567   0.545 -0.5450  1.1095 -0.1841
  209SOL     OW  667   1.638   0.645   0.838 -0.4355 -0.0683  0.1019
  209SOL    HW1  668   1.657   0.555   0.865  1.1083  0.2421  0.1068
  209SOL    HW2  669   1.693   0.699   0.895 -0.1035  0.7947 -1.0069
  210SOL     OW  670   4.396   1.145   0.393 -0.2205  0.4176  0.8363
  210SOL    HW1  671   4.459   1.120   0.325 -1.1643 -1.5856  0.6239
  210SOL    HW2  672   4.332   1.200   0.347 -0.1799  0.0864  0.3758
  211SOL     OW  673   0.723   1.726   0.508 -0.4886 -0.1602  0.0674
  211SOL    HW1  674   0.687   1.639   0.528 -1.4364  0.3705  0.7510
  211SOL    HW2  675   0.650   1.786   0.522  1.0780  1.2259  3.5401
  212SOL     OW  676   4.452   5.296   2.058 -0.4802  0.5615  0.0871
  212SOL    HW1  677   4.485   5.220   2.106  1.2585  1.3543  0.1972
  212SOL    HW2  678   4.511   5.305   1.984 -2.1915  0.3227 -1.3740
  213SOL     OW  679   4.747   4.649   2.490 -0.1546 -0.3384 -0.3896
  213SOL    HW1  680   4.669   4.684   2.533  0.6159  0.4955  0.3667
  213SOL    HW2  681   4.713   4.581   2.432 -1.4566  0.0789 -0.1638
  214SOL     OW  682   4.587   4.875   2.759  0.1980 -0.1761  0.0490
  214SOL    HW1  683   4.557   4.792   2.797  2.0968 -1.6863 -1.4692
  214SOL    HW2  684   4.523   4.894   2.690  0.4071 -1.1190 -0.4325
  215SOL     OW  685   2.740   3.841   0.563  0.4687  0.6027 -0.2470
  215SOL    HW1  686   2.757   3.912   0.626 -0.6446 -0.0732  0.8550
  215SOL    HW2  687   2.667   3.873   0.510  1.5900  1.2899 -1.4230
  216SOL     OW  688   5.840   5.733   2.497 -0.4444  0.0815  0.4176
  216SOL    HW1  689   5.885   5.775   2.571  1.8922  2.2582 -2.0210
  216SOL    HW2  690   5.787   5.802   2.459  0.9902  0.0381 -1.8352
  217SOL     OW  691   5.128   5.146   2.556 -0.4146 -0.1404  0.3154
  217SOL    HW1  692   5.123   5.057   2.591 -0.0543 -1.4938 -2.7234
  217SOL    HW2  693   5.216   5.175   2.579 -0.1178 -1.0413  0.3812
  218SOL     OW  694   1.856   4.854   1.897  0.2591 -0.1940 -0.1309
  218SOL    HW1  695   1.935   4.801   1.904  0.9376  0.5375 -1.9272
  218SOL    HW2  696   1.881   4.940   1.932 -1.1566 -1.2030  3.8874
  219SOL     OW  697   5.388   5.183   2.647 -0.7230  0.1035 -0.2326
  219SOL    HW1  698   5.412   5.256   2.704  0.7116 -0.3745 -0.1781
  219SOL    HW2  699   5.434   5.108   2.683 -0.7983 -0.4703 -1.2875
  220SOL     OW  700   4.980   5.406   2.814 -0.2899  0.0216  0.9692
  220SOL    HW1  701   4.966   5.318   2.849  1.0444 -0.2204  0.9705
  220SOL    HW2  702   4.955   5.465   2.885  2.2956 -0.4505  2.4313
  221SOL     OW  703   4.593   5.355   2.895 -0.1381 -0.2281 -0.1811
  221SOL    HW1  704   4.623   5.294   2.963  1.5798  1.3252  0.5334
  221SOL    HW2  705   4.637   5.438   2.915 -2.1109  1.1878 -1.3217
  222SOL     OW  706   5.711   5.869   2.999  0.2293 -0.0721 -0.4377
  222SOL    HW1  707   5.677   5.915   3.076  0.1079  2.7039 -2.0334
  222SOL    HW2  708   5.637   5.817   2.968 -0.4932  0.6831 -0.0416
  223SOL     OW  709   1.890   4.430   2.245 -0.1187  0.0484 -0.3557
  223SOL    HW1  710   1.879   4.522   2.269  1.1237  0.4010 -1.0352
  223SOL    HW2  711   1.913   4.432   2.152 -1.7309 -1.0824 -0.8193
  224SOL     OW  712   4.421   1.817   2.441 -0.1015  0.2961 -0.5052
  224SOL    HW1  713   4.448   1.869   2.365  0.0364 -0.2595 -0.8359
  224SOL    HW2  714   4.385   1.737   2.405  0.5390 -0.2497  0.0267
  225SOL     OW  715   4.641   5.695   2.717 -0.2981 -0.5250  0.5082
  225SOL    HW1  716   4.598   5.772   2.681  0.0537  0.3761  1.9445
  225SOL    HW2  717   4.628   5.627   2.651  0.3819  1.0565 -1.3276
  226SOL     OW  718   4.319   5.914   2.342  0.2430 -0.0888  0.0669
  226SOL    HW1  719   4.240   5.952   2.305  0.8471  0.4262 -0.7028
  226SOL    HW2  720   4.293   5.826   2.370 -0.6484  0.1622  0.0280
  227SOL     OW  721   2.722   3.794   0.230  0.3352 -0.0843  0.2265
  227SOL    HW1  722   2.816   3.799   0.250  1.2721 -2.5208 -2.6758
  227SOL    HW2  723   2.689   3.881   0.248  2.6896  0.3846  3.1995
  228SOL     OW  724   5.289   5.177   2.147  0.0975 -0.1370 -0.2789
  228SOL    HW1  725   5.223   5.175   2.215 -0.4845 -0.2435 -0.8398
  228SOL    HW2  726   5.372   5.187   2.194 -0.2845 -0.3202  0.4405
  229SOL     OW  727   3.776   2.092   0.429  0.0293  0.1420  0.1891
  229SOL    HW1  728   3.763   2.124   0.518  0.8856  0.8002  0.0908
  229SOL    HW2  729   3.839   2.021   0.438 -0.0516  0.0622  0.1315
  230SOL     OW  730   4.487   5.050   2.185 -0.1943 -0.0350  0.4645
  230SOL    HW1  731   4.480   5.070   2.278  0.2203 -1.5170  0.8326
  230SOL    HW2  732   4.574   5.012   2.175  0.8705  2.5024 -1.0231
  231SOL     OW  733   1.556   1.915   1.820  0.4074 -0.2367 -0.2780
  231SOL    HW1  734   1.640   1.884   1.852  0.7554 -0.5845 -1.4867
  231SOL    HW2  735   1.559   2.010   1.834  0.7511 -0.3165  0.2215
  232SOL     OW  736   4.291   5.719   2.067 -0.5285  0.3267  0.2168
  232SOL    HW1  737   4.356   5.681   2.126 -0.3045 -3.0537 -1.8988
  232SOL    HW2  738   4.207   5.702   2.109 -0.3065 -0.7627  0.2531
  233SOL     OW  739   2.025   5.141   2.432  0.4835 -0.4307  0.1041
  233SOL    HW1  740   2.044   5.051   2.408  0.0871 -0.8469  1.2965
  233SOL    HW2  741   2.110   5.177   2.458  0.5094 -0.7037  0.3953
  234SOL     OW  742   1.992   5.487   2.426  0.3616 -0.1335  0.2748
  234SOL    HW1  743   2.070   5.453   2.469  1.7743  1.7269 -0.6977
  234SOL    HW2  744   1.933   5.509   2.499  0.8545 -1.2517  1.0318
  235SOL     OW  745   5.168   5.154   2.906 -0.5596  0.1544 -0.0877
  235SOL    HW1  746   5.210   5.116   2.984  0.2791 -0.2331 -0.7137
  235SOL    HW2  747   5.075   5.134   2.917  0.0007 -4.4223 -1.5640
  236SOL     OW  748   3.505   3.045   0.390 -0.1697 -0.0869 -0.5509
  236SOL    HW1  749   3.533   2.956   0.368 -0.4473 -0.0968 -0.8611
  236SOL    HW2  750   3.425   3.059   0.340 -0.3231  0.2126 -0.2311
  237SOL     OW  751   5.248   4.247   1.971  0.0906 -0.3921 -1.1195
  237SOL    HW1  752   5.305   4.183   1.929  0.3221 -0.3617 -0.8515
  237SOL    HW2  753   5.276   4.249   2.062 -0.0473 -0.0552 -1.0815
  238SOL     OW  754   2.220   3.004   0.159  0.0720 -0.0827  0.2085
  238SOL    HW1  755   2.159   3.020   0.231  1.3571 -0.6209  1.4712
  238SOL    HW2  756   2.307   3.009   0.200  0.8610 -0.0196 -1.3911
  239SOL     OW  757   1.962   5.654   2.028  0.3694 -0.0539  0.4248
  239SOL    HW1  758   1.920   5.572   2.054  0.3069  0.1644  1.0286
  239SOL    HW2  759   1.895   5.701   1.979  0.4592 -0.4317 -0.0696
  240SOL     OW  760   5.953   5.776   2.737  0.5563 -0.3000 -0.3615
  240SOL    HW1  761   5.976   5.856   2.689  1.5313  0.1461  0.7789
  240SOL    HW2  762   5.916   5.809   2.820 -0.5855 -1.0454 -0.5554
  241SOL     OW  763   1.755   1.738   2.284 -0.0456  0.2906  0.0061
  241SOL    HW1  764   1.716   1.766   2.367  0.5637  1.1805  0.0078
  241SOL    HW2  765   1.734   1.809   2.223 -0.3870 -0.3032 -0.5746
  242SOL     OW  766   4.907   5.314   2.574  0.2821 -0.5396 -0.0029
  242SOL    HW1  767   4.910   5.347   2.663 -0.7560  2.2442 -0.8886
  242SOL    HW2  768   4.971   5.243   2.572  1.7539  0.6122  2.4423
  243SOL     OW  769   6.008   4.354   2.663 -0.2397 -0.0868  0.3890
  243SOL    HW1  770   5.926   4.398   2.685 -0.0409  0.0749  0.8127
  243SOL    HW2  771   5.981   4.275   2.617 -0.6642 -0.4070  1.1706
  244SOL     OW  772   5.632   1.750   2.234  0.6379 -0.1724 -0.1360
  244SOL    HW1  773   5.553   1.696   2.228  0.2334  0.3997 -0.0236
  244SOL    HW2  774   5.697   1.703   2.183 -0.0155 -0.2335 -0.9243
  245SOL     OW  775   2.817   2.326   0.322  0.6180  0.1478 -0.5937
  245SOL    HW1  776   2.791   2.275   0.399 -0.5096  1.2488 -0.2140
  245SOL    HW2  777   2.788   2.415   0.341  0.2376  0.4345 -2.3295
  246SOL     OW  778   3.078   2.816   0.035  0.3350  0.1639 -0.1712
  246SOL    HW1  779   3.066   2.817   0.130 -1.5415 -2.4789 -0.2706
  246SOL    HW2  780   3.167   2.784   0.023  0.1140 -0.8151  0.7078
  247SOL     OW  781   5.469   4.937   2.056 -0.5933  0.1165 -0.2677
  247SOL    HW1  782   5.374   4.928   2.063 -0.6825  0.6177 -0.7788
  247SOL    HW2  783   5.499   4.951   2.145 -0.9142 -0.8130 -0.0057
  248SOL     OW  784   4.167   5.556   2.624  0.5544 -0.2602  0.5230
  248SOL    HW1  785   4.130   5.616   2.689 -2.0324 -0.0635 -1.0106
  248SOL    HW2  786   4.215   5.491   2.676 -1.7616 -0.3781  2.6847
  249SOL     OW  787   5.205   4.512   1.930  0.2279 -0.3545  0.3485
  249SOL    HW1  788   5.278   4.508   1.868  0.4044  0.0011  0.5304
  249SOL    HW2  789   5.210   4.430   1.979 -0.7854 -1.3175 -1.0664
  250SOL     OW  790   5.631   5.271   2.166 -0.1286  0.4072 -0.0598
  250SOL    HW1  791   5.566   5.328   2.207 -0.2571  1.0472 -1.1188
  250SOL    HW2  792   5.622   5.287   2.072  0.4094 -0.7507 -0.3295
  251SOL     OW  793   5.025   4.604   2.477 -0.0298  0.0920 -0.0898
  251SOL    HW1  794   4.932   4.615   2.498 -0.0027  0.5442 -0.1987
  251SOL    HW2  795   5.031   4.620   2.383  0.7262  4.1089  0.4698
  252SOL     OW  796   5.460   5.874   2.421 -0.4552  0.6149 -0.5321
  252SOL    HW1  797   5.376   5.835   2.446  0.0373  0.4013  0.8444
  252SOL    HW2  798   5.467   5.954   2.473  1.0174 -0.3232  0.8137
  253SOL     OW  799   2.842   3.427   0.071  0.3178  0.4344 -0.3254
  253SOL    HW1  800   2.864   3.479  -0.007  0.9922 -1.2613 -1.3263
  253SOL    HW2  801   2.926   3.410   0.113 -0.0313  1.2541  0.7630
  254SOL     OW  802   6.186   5.579   2.633 -0.3923 -0.7632 -0.3469
  254SOL    HW1  803   6.185   5.519   2.708  1.0941 -1.0875 -0.5595
  254SOL    HW2  804   6.101   5.622   2.636 -0.6412 -1.3018  1.0970
  255SOL     OW  805   5.622   6.201   3.066 -0.0749 -0.1455  0.3951
  255SOL    HW1  806   5.534   6.231   3.042  0.0991  0.7357  0.8207
  255SOL    HW2  807   5.608   6.139   3.138 -0.3064  0.5453  0.9560
  256SOL     OW  808   4.770   5.255   2.345 -0.1424 -0.0225  0.1196
  256SOL    HW1  809   4.823   5.284   2.419 -1.7388 -0.3172  1.4556
  256SOL    HW2  810   4.777   5.160   2.346  1.2910  0.0253 -1.3014
  257SOL     OW  811   5.800   5.027   2.573 -0.8619  0.0197 -0.4467
  257SOL    HW1  812   5.826   4.935   2.568 -0.5518  0.1772 -3.3732
  257SOL    HW2  813   5.875   5.075   2.536 -1.6777  1.3041 -0.4993
  258SOL     OW  814   5.406   2.221   2.147  0.1788 -0.1212  0.6702
  258SOL    HW1  815   5.429   2.129   2.153 -0.2504 -0.3511 -0.7376
  258SOL    HW2  816   5.488   2.268   2.160  0.7557 -0.7790 -0.4607
  259SOL     OW  817   1.683   5.821   2.150 -0.1357 -0.0536  0.2208
  259SOL    HW1  818   1.776   5.801   2.143 -0.3541 -1.3068  0.5644
  259SOL    HW2  819   1.679   5.899   2.205  0.6452 -1.0664  1.7829
  260SOL     OW  820   4.905   5.831   2.291 -0.4113  0.2048 -0.2147
  260SOL    HW1  821   4.829   5.884   2.314 -0.4065 -0.1920  0.7501
  260SOL    HW2  822   4.980   5.878   2.328 -0.0806  0.9818 -1.7986
  261SOL     OW  823   1.595   4.294   2.126  0.0959 -0.3441 -0.1144
  261SOL    HW1  824   1.628   4.268   2.212 -1.0955  0.1211  0.5169
  261SOL    HW2  825   1.673   4.302   2.071  0.9484 -0.0227  1.0993
  262SOL     OW  826   4.685   2.134   2.849  0.3247  0.2970 -0.0063
  262SOL    HW1  827   4.727   2.218   2.831 -0.2446  0.3064 -1.3259
  262SOL    HW2  828   4.655   2.103   2.764 -1.1198 -0.3737  0.7260
  263SOL     OW  829   5.140   6.229   3.027 -0.6905 -0.7508  0.0458
  263SOL    HW1  830   5.198   6.242   2.952 -1.2604  0.5861 -0.1804
  263SOL    HW2  831   5.099   6.144   3.011  0.8753 -1.5298  0.0072
  264SOL     OW  832   4.419   5.086   2.479  0.1345  0.2200  0.0158
  264SOL    HW1  833   4.441   5.159   2.537  0.3868  0.3695 -0.2681
  264SOL    HW2  834   4.331   5.106   2.446 -1.0767 -1.0556  2.2349
  265SOL     OW  835   4.970   4.521   2.030 -0.2932 -0.5411  0.3539
  265SOL    HW1  836   5.059   4.532   1.997 -0.0312 -2.9792  0.0745
  265SOL    HW2  837   4.971   4.560   2.117  0.8340  0.0886  0.0703
  266SOL     OW  838   5.299   5.668   3.025  0.0318 -0.2170 -0.5226
  266SOL    HW1  839   5.375   5.610   3.021 -1.1206 -1.9705  1.0989
  266SOL    HW2  840   5.256   5.656   2.941  2.4320  2.2670 -2.2829
  267SOL     OW  841   6.151   5.073   3.024 -0.4202 -0.5373  0.3946
  267SOL    HW1  842   6.101   5.028   2.955  1.0325  1.1022 -1.8805
  267SOL    HW2  843   6.089   5.135   3.062 -0.3822  1.1645 -2.0863
  268SOL     OW  844   5.505   5.771   2.829 -0.3419 -0.2921  0.6764
  268SOL    HW1  845   5.470   5.715   2.760 -1.4518 -0.2579  1.1977
  268SOL    HW2  846   5.434   5.832   2.848  0.7796  1.1925  0.2454
  269SOL     OW  847   5.559   4.584   2.512 -0.2802 -0.2607  0.5154
  269SOL    HW1  848   5.465   4.589   2.495 -0.1971 -0.8440 -0.1636
  269SOL    HW2  849   5.583   4.494   2.490  0.3061 -0.3305  1.4005
  270SOL     OW  850   5.007   3.906   2.247  0.5283 -0.2328  0.0447
  270SOL    HW1  851   5.049   3.990   2.225 -0.5286  1.0744  2.5318
  270SOL    HW2  852   4.915   3.928   2.260  0.4008 -1.5753  1.6939
  271SOL     OW  853   1.730   5.496   2.046 -0.7233 -0.1083 -0.5587
  271SOL    HW1  854   1.686   5.544   2.116 -0.2981 -0.0344 -0.3342
  271SOL    HW2  855   1.755   5.412   2.086  0.3520  0.3034 -0.3273
  272SOL     OW  856   4.801   4.315   2.101  0.1194 -0.4413  0.1216
  272SOL    HW1  857   4.863   4.387   2.091  0.7138 -1.2801 -3.0474
  272SOL    HW2  858   4.855   4.239   2.124  0.1130 -0.8147 -1.0239
  273SOL     OW  859   5.652   4.324   2.143 -1.0916  0.0550  0.6301
  273SOL    HW1  860   5.607   4.330   2.058 -1.3002 -0.6809  0.6865
  273SOL    HW2  861   5.745   4.324   2.120 -1.1535 -0.6764  0.3612
  274SOL     OW  862   5.747   5.003   2.968  0.2992 -0.1547  0.1621
  274SOL    HW1  863   5.699   5.049   3.037  0.4792  0.9372 -0.4181
  274SOL    HW2  864   5.685   4.997   2.896  1.0590  1.5288 -0.7019
  275SOL     OW  865   6.014   5.158   2.470  0.3049  0.2689 -0.0592
  275SOL    HW1  866   6.094   5.118   2.434 -0.8389 -2.5765  0.2702
  275SOL    HW2  867   6.004   5.239   2.421  2.2432 -0.3575 -1.6413
  276SOL     OW  868   5.095   5.618   2.633 -0.1018  0.5236  0.6006
  276SOL    HW1  869   5.025   5.682   2.623 -0.5658  0.0156  0.5025
  276SOL    HW2  870   5.063   5.558   2.700  0.7977  1.0039  1.4823
  277SOL     OW  871   5.435   1.944   2.219 -0.0836  0.0128  0.0398
  277SOL    HW1  872   5.515   1.892   2.209  0.8715  1.6259 -1.3432
  277SOL    HW2  873   5.384   1.897   2.284  2.1290 -0.9536  1.2048
  278SOL     OW  874   1.383   4.666   1.751  0.1710 -0.8079 -0.1922
  278SOL    HW1  875   1.396   4.602   1.821  1.1326 -0.4904 -0.0683
  278SOL    HW2  876   1.389   4.751   1.795  0.8482 -0.6047 -0.6577
  279SOL     OW  877   2.239   2.630   0.210  0.1742  0.5262  0.1257
  279SOL    HW1  878   2.252   2.537   0.191  0.4562  0.3333  1.1820
  279SOL    HW2  879   2.173   2.658   0.147  0.0632 -0.3959 -0.1952
  280SOL     OW  880   4.907   4.153   2.634  0.0362  0.7818  0.0540
  280SOL    HW1  881   4.885   4.077   2.687  0.1457 -0.0358 -1.0380
  280SOL    HW2  882   5.002   4.162   2.643  0.1029  0.4290 -0.2700
  281SOL     OW  883   5.317   4.860   2.310 -0.0940 -0.4140  0.2355
  281SOL    HW1  884   5.357   4.944   2.332 -0.9139 -0.1843  0.9113
  281SOL    HW2  885   5.239   4.883   2.260  0.1471 -0.8193 -0.3374
  282SOL     OW  886   5.483   4.133   2.236  0.4788  0.4764 -0.3733
  282SOL    HW1  887   5.503   4.043   2.212 -0.4021  0.5248 -1.3696
  282SOL    HW2  888   5.554   4.184   2.199  0.3096  0.3137 -0.9263
  283SOL     OW  889   5.673   5.229   2.454 -0.0460  0.1296  0.0250
  283SOL    HW1  890   5.734   5.271   2.393 -1.3511 -0.2719 -1.6468
  283SOL    HW2  891   5.722   5.155   2.490  0.8525  0.5532 -0.3108
  284SOL     OW  892   5.985   4.782   2.610 -0.0169 -0.2308 -0.0664
  284SOL    HW1  893   5.947   4.696   2.629  0.2268 -0.1350  0.9023
  284SOL    HW2  894   5.964   4.835   2.687  0.2963  0.4212 -0.4220
  285SOL     OW  895   1.918   5.337   2.194  0.0949 -0.0602  0.1186
  285SOL    HW1  896   2.003   5.302   2.168  0.5031  1.1409 -0.1959
  285SOL    HW2  897   1.929   5.366   2.284 -0.3515 -1.0182  0.5076
  286SOL     OW  898   4.739   5.610   2.260 -0.4088  0.3318 -0.0889
  286SOL    HW1  899   4.796   5.684   2.279  1.3504 -1.2279  1.1169
  286SOL    HW2  900   4.797   5.547   2.217 -1.2824 -1.1975  0.8922
  287SOL     OW  901   2.193   5.377   2.571 -0.0903  0.2984 -0.0718
  287SOL    HW1  902   2.222   5.336   2.653  1.7992 -0.1912 -0.9270
  287SOL    HW2  903   2.213   5.312   2.504 -2.8668  0.1216 -0.8454
  288SOL     OW  904   1.678   5.237   1.735 -0.6360  0.0828 -0.3228
  288SOL    HW1  905   1.743   5.304   1.753  0.0369 -0.3294 -1.1567
  288SOL    HW2  906   1.636   5.221   1.819 -0.1334  0.8395  0.0809
  289SOL     OW  907   4.736   4.807   2.122 -0.4114  0.4129  0.2974
  289SOL    HW1  908   4.705   4.746   2.189  0.0337 -1.5299 -1.1505
  289SOL    HW2  909   4.679   4.789   2.046 -2.1313  3.8321  0.6117
  290SOL     OW  910   5.340   5.375   2.912  0.2628 -0.1594 -0.2763
  290SOL    HW1  911   5.285   5.340   2.842 -1.3881  1.5119  0.0871
  290SOL    HW2  912   5.294   5.350   2.992  0.1526  0.9904  0.0428
  291SOL     OW  913   5.585   5.528   3.008 -0.3599  0.5975 -0.0602
  291SOL    HW1  914   5.513   5.473   2.978 -0.3078  0.7549 -0.4831
  291SOL    HW2  915   5.636   5.545   2.929 -0.5053  1.4452  0.0212
  292SOL     OW  916   1.898   5.307   2.719  0.8506  0.4301  0.7471
  292SOL    HW1  917   1.913   5.263   2.635  0.6438 -1.2064  1.5323
  292SOL    HW2  918   1.804   5.299   2.734  0.9526  0.2840  1.3463
  293SOL     OW  919   3.030   2.369  -0.033 -0.5139 -1.0580 -0.6797
  293SOL    HW1  920   3.047   2.284   0.006  0.6480 -0.7965 -0.5841
  293SOL    HW2  921   3.098   2.427   0.003 -1.2278 -0.1094 -0.8007
  294SOL     OW  922   5.070   5.455   2.343 -0.0338  0.0001 -0.2321
  294SOL    HW1  923   5.027   5.393   2.285 -0.4525  0.0244  0.0463
  294SOL    HW2  924   5.049   5.423   2.431 -1.8368  1.5783 -0.0354
  295SOL     OW  925   2.466   2.797   0.087  0.7111 -0.1020 -0.1670
  295SOL    HW1  926   2.486   2.745   0.009  0.9015  0.6585 -0.6384
  295SOL    HW2  927   2.411   2.740   0.141  0.1613 -0.4668 -1.0898
  296SOL     OW  928   3.340   2.810   0.125 -0.1179  0.2736 -0.4015
  296SOL    HW1  929   3.400   2.783   0.195  1.6177 -2.0788 -2.6193
  296SOL    HW2  930   3.368   2.898   0.102  0.4421  0.3883  0.6508
  297SOL     OW  931   3.840   6.063   2.769  0.3203 -0.5674  0.2654
  297SOL    HW1  932   3.841   5.985   2.714  1.2423  1.0612 -2.2196
  297SOL    HW2  933   3.748   6.075   2.792  0.0516 -1.8425 -0.0765
  298SOL     OW  934   4.670   5.500   2.511  0.3522 -0.5653 -1.0630
  298SOL    HW1  935   4.668   5.548   2.428  0.2337 -0.4960 -1.0200
  298SOL    HW2  936   4.754   5.455   2.510 -0.4527 -2.1242 -2.0909
  299SOL     OW  937   4.920   5.096   2.847 -0.1141 -0.2835  0.2120
  299SOL    HW1  938   4.961   5.010   2.853 -0.3606 -0.3801  0.5324
  299SOL    HW2  939   4.866   5.092   2.769  0.8366 -0.0034 -0.4797
  300SOL     OW  940   5.908   5.564   2.262  0.3894 -0.0018 -0.0176
  300SOL    HW1  941   5.955   5.625   2.319  0.7758  1.1879 -1.5498
  300SOL    HW2  942   5.818   5.596   2.262  0.3312 -0.1646  0.1321
  301SOL     OW  943   5.655   6.017   2.702 -0.5766  0.1189 -0.2054
  301SOL    HW1  944   5.602   5.984   2.774  0.2683  1.1181  0.9118
  301SOL    HW2  945   5.605   6.091   2.667  0.6695  2.0595  1.8460
  302SOL     OW  946   1.865   4.760   2.176 -0.0544  0.3121  0.0976
  302SOL    HW1  947   1.853   4.770   2.082 -0.1031  1.7948  0.2449
  302SOL    HW2  948   1.782   4.791   2.214  1.0995  2.8124  0.7489
  303SOL     OW  949   4.368   5.760   2.989 -0.4875  0.7147 -0.5777
  303SOL    HW1  950   4.337   5.675   3.021 -2.9109  0.4632 -3.1610
  303SOL    HW2  951   4.417   5.797   3.062  0.1929 -2.6358  0.8465
  304SOL     OW  952   4.522   5.271   2.635 -0.1193 -0.3612 -0.5408
  304SOL    HW1  953   4.531   5.345   2.575  2.6739 -0.0520  0.1230
  304SOL    HW2  954   4.537   5.308   2.722  0.9404 -1.6277 -0.1505
  305SOL     OW  955   5.607   5.009   2.757  0.4127  0.1501  0.0201
  305SOL    HW1  956   5.571   4.921   2.755  0.1303  0.2440  0.6269
  305SOL    HW2  957   5.671   5.011   2.686 -0.3362 -0.2046 -0.6776
  306SOL     OW  958   1.594   4.957   2.052  0.4419 -0.0231 -0.6934
  306SOL    HW1  959   1.673   5.004   2.025  0.7778 -0.4946 -0.5336
  306SOL    HW2  960   1.621   4.905   2.128  0.3344 -1.2302 -1.4546
  307SOL     OW  961   4.536   4.633   2.915 -0.3439 -0.2779 -0.2025
  307SOL    HW1  962   4.516   4.541   2.933 -2.4063  0.3783  1.2104
  307SOL    HW2  963   4.630   4.641   2.931 -0.4542 -1.7713  1.4807
  308SOL     OW  964   4.073   5.769   2.783 -0.3257  0.0124  0.2824
  308SOL    HW1  965   4.075   5.790   2.877 -1.2374 -0.4339  0.4171
  308SOL    HW2  966   3.980   5.756   2.764 -0.2565  1.1322 -0.9273
  309SOL     OW  967   5.697   5.282   2.838  0.8756  0.3087 -0.1208
  309SOL    HW1  968   5.757   5.320   2.774  0.1253 -0.1652 -1.1235
  309SOL    HW2  969   5.663   5.203   2.795  1.6764 -0.9994  1.5294
  310SOL     OW  970   4.938   4.314   2.421 -0.3064 -0.4523  0.2050
  310SOL    HW1  971   4.921   4.265   2.502  1.4227 -1.8427 -0.1938
  310SOL    HW2  972   4.980   4.395   2.451 -1.5461 -0.0019  0.7830
  311SOL     OW  973   1.758   4.529   1.829  0.1040 -0.1950  0.6740
  311SOL    HW1  974   1.702   4.544   1.753 -0.0723 -2.1195  0.3734
  311SOL    HW2  975   1.719   4.580   1.899  0.7731  2.3582 -0.6952
  312SOL     OW  976   5.638   4.747   2.706 -0.4416  0.2119 -0.4999
  312SOL    HW1  977   5.710   4.688   2.728  0.7045  1.5685 -0.5654
  312SOL    HW2  978   5.601   4.710   2.626  0.0524 -0.5982 -0.3647
  313SOL     OW  979   1.920   4.685   1.324 -0.7101  0.1296 -0.0911
  313SOL    HW1  980   1.841   4.725   1.289 -0.4206  0.5323 -0.2925
  313SOL    HW2  981   1.938   4.732   1.405 -0.2640  0.5420 -0.4231
  314SOL     OW  982   1.508   5.225   1.956  0.2209 -0.3833 -0.7279
  314SOL    HW1  983   1.500   5.131   1.973  1.1216 -0.4454 -0.6067
  314SOL    HW2  984   1.418   5.255   1.942 -0.6640 -0.5124  3.3422
  315SOL     OW  985   5.357   5.631   2.636 -0.6185  0.1337  0.0995
  315SOL    HW1  986   5.267   5.597   2.636 -0.3265 -0.6695 -0.3467
  315SOL    HW2  987   5.405   5.570   2.581  0.2326  0.4917  0.4359
  316SOL     OW  988   4.732   5.075   2.669 -0.4611  0.1199 -0.2998
  316SOL    HW1  989   4.667   5.141   2.647 -0.4852  0.1970  0.0002
  316SOL    HW2  990   4.682   5.004   2.711 -0.3585  0.1579 -0.1134
  317SOL     OW  991   4.460   4.812   2.474  0.3285  0.6370 -0.2235
  317SOL    HW1  992   4.474   4.773   2.388 -1.0395 -1.4880  0.4646
  317SOL    HW2  993   4.441   4.904   2.455  1.6650  0.6038 -2.0420
  318SOL     OW  994   3.488   2.068   0.442 -0.2777 -0.5864  0.7190
  318SOL    HW1  995   3.581   2.085   0.426  0.0749 -1.9138  1.2022
  318SOL    HW2  996   3.457   2.145   0.488  1.2011 -1.1386  2.7842
  319SOL     OW  997   4.135   1.636   1.713  0.2857  0.5343  0.4040
  319SOL    HW1  998   4.102   1.571   1.776 -0.8375  0.3352 -0.3558
  319SOL    HW2  999   4.133   1.719   1.762 -1.0081  0.4625  0.5332
  320SOL     OW 1000   4.588   5.930   2.616  0.0454  0.1978 -0.3222
  320SOL    HW1 1001   4.604   6.015   2.657  0.4978  0.4791 -1.0681
  320SOL    HW2 1002   4.493   5.918   2.622  0.1517 -0.0621  1.3576
  321SOL     OW 1003   4.774   5.560   2.967  0.2425  0.3124  0.2961
  321SOL    HW1 1004   4.739   5.636   2.921  0.6275 -0.2200 -0.9387
  321SOL    HW2 1005   4.830   5.597   3.035 -0.7508  1.1333  0.6871
  322SOL     OW 1006   3.390   3.051   0.006  0.0245 -0.3413 -0.1333
  322SOL    HW1 1007   3.297   3.073   0.004 -0.2167 -1.3440 -1.6936
  322SOL    HW2 1008   3.427   3.095  -0.070  1.2040  1.4128  1.3869
  323SOL     OW 1009   4.262   5.035   3.006 -0.7115 -0.5380  0.4744
  323SOL    HW1 1010   4.299   4.952   2.977  0.7031  0.2589 -0.1277
  323SOL    HW2 1011   4.324   5.067   3.072  0.3923  1.3601 -1.3619
  324SOL     OW 1012   5.013   4.705   2.223 -0.0091  0.1048 -0.3883
  324SOL    HW1 1013   4.931   4.750   2.243 -0.7278 -1.1155 -0.4654
  324SOL    HW2 1014   5.072   4.774   2.193 -1.1126  0.9626 -0.6475
  325SOL     OW 1015   1.974   4.780   2.532 -0.2876 -0.1825  0.0185
  325SOL    HW1 1016   1.895   4.826   2.559 -0.0683  1.0248 -1.2833
  325SOL    HW2 1017   1.950   4.687   2.537 -1.8808  0.1605 -0.5646
  326SOL     OW 1018   5.044   4.868   2.899 -0.1709 -0.1455  0.6271
  326SOL    HW1 1019   5.094   4.817   2.835 -2.1176 -2.5321  0.8626
  326SOL    HW2 1020   5.102   4.872   2.975  0.8678 -0.1536 -0.1283
  327SOL     OW 1021   3.248   3.612   0.202 -0.0520  0.2459  0.5132
  327SOL    HW1 1022   3.202   3.599   0.285 -1.6943  1.6332 -0.0983
  327SOL    HW2 1023   3.192   3.567   0.138 -0.2368  1.4245 -0.1718
  328SOL     OW 1024   4.890   5.053   1.895 -0.3741  0.0610 -0.4714
  328SOL    HW1 1025   4.834   5.028   1.820 -1.3389  0.3784  0.1201
  328SOL    HW2 1026   4.835   5.037   1.971  0.0554  1.1831  0.0850
  329SOL     OW 1027   4.337   5.475   3.024 -0.1401  0.5393 -0.1324
  329SOL    HW1 1028   4.254   5.429   3.043  0.6246 -0.3493  1.2900
  329SOL    HW2 1029   4.403   5.406   3.029  0.8228  1.4542 -0.0587
  330SOL     OW 1030   5.736   5.495   2.602  0.2225 -0.6479 -0.4527
  330SOL    HW1 1031   5.641   5.495   2.589  0.0727 -1.6863  0.4749
  330SOL    HW2 1032   5.764   5.581   2.570 -1.1787  0.1567  0.3584
  331SOL     OW 1033   1.783   5.129   2.012  0.0046  0.3823 -0.3843
  331SOL    HW1 1034   1.716   5.187   2.049  0.0963 -1.4626  3.1273
  331SOL    HW2 1035   1.866   5.168   2.040  0.1442 -0.2152  0.0559
  332SOL     OW 1036   3.931   3.906   0.042 -0.1301 -0.3079  0.0911
  332SOL    HW1 1037   3.983   3.859  -0.022 -0.8445 -0.6187 -0.2723
  332SOL    HW2 1038   3.990   3.918   0.117  1.0358  0.9368 -0.9752
  333SOL     OW 1039   5.707   1.894   2.434 -0.1499 -0.6836 -0.4372
  333SOL    HW1 1040   5.774   1.953   2.402 -0.1607 -1.1542 -1.3791
  333SOL    HW2 1041   5.672   1.852   2.355 -2.5646  0.5794 -0.1588
  334SOL     OW 1042   3.798   5.803   2.666 -0.1263 -0.4981 -0.0154
  334SOL    HW1 1043   3.765   5.767   2.748 -0.4691  0.1084  0.1206
  334SOL    HW2 1044   3.723   5.795   2.605 -1.3888  2.9261  0.8891
  335SOL     OW 1045   2.255   4.381   2.239 -0.0757 -0.4739  0.0656
  335SOL    HW1 1046   2.338   4.369   2.286  0.5444 -0.4933 -1.0156
  335SOL    HW2 1047   2.188   4.355   2.303  0.8434 -2.3287  0.3560
  336SOL     OW 1048   5.902   6.050   2.584 -0.2900  0.2218  0.2037
  336SOL    HW1 1049   5.864   6.084   2.503 -0.5084  0.5824  0.4519
  336SOL    HW2 1050   5.828   6.041   2.643 -0.1115  0.0914  0.4081
  337SOL     OW 1051   5.896   5.305   2.284  0.8664  0.0956  0.3181
  337SOL    HW1 1052   5.850   5.272   2.206 -0.5927  1.0146  0.7359
  337SOL    HW2 1053   5.902   5.399   2.269  1.4057  0.1557  0.9028
  338SOL     OW 1054   3.119   3.126   0.141  0.1168  0.8282 -0.2089
  338SOL    HW1 1055   3.069   3.061   0.191 -1.7437  1.9826 -0.4419
  338SOL    HW2 1056   3.161   3.180   0.208  1.1662 -0.2190 -0.0047
  339SOL     OW 1057   4.676   1.539   1.948 -1.1703 -0.9313 -0.6473
  339SOL    HW1 1058   4.730   1.615   1.971 -2.6158 -0.0152 -0.1111
  339SOL    HW2 1059   4.631   1.516   2.029 -2.6454 -0.7563 -1.3852
  340SOL     OW 1060   3.404   3.843   0.175 -0.4968  0.3663 -0.1885
  340SOL    HW1 1061   3.364   3.756   0.176  2.7130 -1.3254 -2.0028
  340SOL    HW2 1062   3.425   3.860   0.267 -1.5795 -0.5554  0.2553
  341SOL     OW 1063   2.037   4.576   2.807 -0.0331  0.1862 -0.1355
  341SOL    HW1 1064   1.967   4.522   2.843  0.0579  0.7841  1.0015
  341SOL    HW2 1065   2.025   4.571   2.712 -0.2092 -1.5681 -0.0617
  342SOL     OW 1066   4.180   5.111   2.369 -0.1644  0.2636 -0.3295
  342SOL    HW1 1067   4.122   5.041   2.339 -1.6224  0.9633  0.7395
  342SOL    HW2 1068   4.134   5.191   2.346 -0.8460  0.8383  2.6514
  343SOL     OW 1069   5.394   1.583   2.100  0.1337  0.0388 -0.4965
  343SOL    HW1 1070   5.361   1.505   2.055 -0.4684  0.3586 -0.6180
  343SOL    HW2 1071   5.328   1.602   2.167  0.8767 -0.2630  0.3489
  344SOL     OW 1072   2.801   3.495   0.353 -0.5828  0.1318  1.0006
  344SOL    HW1 1073   2.775   3.479   0.262  2.0211  0.0002  0.1824
  344SOL    HW2 1074   2.788   3.411   0.396  1.2129 -0.7946 -0.1348
  345SOL     OW 1075   5.414   5.484   2.227  0.0177 -0.6348  0.1358
  345SOL    HW1 1076   5.397   5.542   2.153  0.5290  1.3803  1.5209
  345SOL    HW2 1077   5.328   5.454   2.255 -0.2986 -0.1192 -0.2785
  346SOL     OW 1078   1.485   1.413   1.984  0.4943 -0.2867 -0.0343
  346SOL    HW1 1079   1.550   1.435   2.051  0.9531  1.5415 -1.0247
  346SOL    HW2 1080   1.418   1.363   2.031  2.0155 -1.1793  1.2537
  347SOL     OW 1081   2.120   3.445   0.371  0.8779 -0.1146 -0.8934
  347SOL    HW1 1082   2.183   3.508   0.336  1.4558  0.4531  1.0656
  347SOL    HW2 1083   2.171   3.390   0.430 -0.7069  1.7335  2.4752
  348SOL     OW 1084   5.930   5.331   2.670  0.1943  0.0592  0.1443
  348SOL    HW1 1085   5.855   5.384   2.644  1.0990  1.4893  0.3475
  348SOL    HW2 1086   5.929   5.256   2.609 -0.5235  0.8268 -0.8212
  349SOL     OW 1087   5.487   5.427   2.492  0.1990 -0.0775  0.1758
  349SOL    HW1 1088   5.555   5.360   2.494 -0.7178 -1.0592 -0.3617
  349SOL    HW2 1089   5.473   5.444   2.398  0.6161  1.0967  0.3075
  350SOL     OW 1090   5.292   4.596   2.365 -0.4727  0.1842 -0.0948
  350SOL    HW1 1091   5.316   4.682   2.331  1.1545 -0.4100 -0.5687
  350SOL    HW2 1092   5.228   4.614   2.433 -1.0288  1.6763 -0.9696
  351SOL     OW 1093   4.883   5.796   2.663 -0.6193 -0.5283  0.2559
  351SOL    HW1 1094   4.883   5.876   2.610 -2.2486  0.6692  1.9301
  351SOL    HW2 1095   4.791   5.783   2.686  0.0307 -0.9510  2.8365
  352SOL     OW 1096   3.581   2.483   0.394 -0.0481  0.1510  0.3842
  352SOL    HW1 1097   3.514   2.441   0.448  0.7669 -1.4375  0.2499
  352SOL    HW2 1098   3.566   2.448   0.306 -0.1309  1.1595 -0.0105
  353SOL     OW 1099   4.516   1.733   1.815  0.0445 -0.3452 -0.1211
  353SOL    HW1 1100   4.553   1.660   1.864  0.6165 -0.9383 -1.3946
  353SOL    HW2 1101   4.450   1.693   1.758  0.1809  0.1566 -0.6419
  354SOL     OW 1102   2.834   2.190   0.568 -0.1812  0.1001  0.0034
  354SOL    HW1 1103   2.805   2.262   0.625  0.3973  0.5170 -0.2285
  354SOL    HW2 1104   2.777   2.117   0.592 -0.7956  0.6400  0.2240
  355SOL     OW 1105   4.452   4.407   1.640 -0.5835 -0.3169 -0.3870
  355SOL    HW1 1106   4.466   4.490   1.594  1.4750 -1.3834 -1.8837
  355SOL    HW2 1107   4.481   4.425   1.730 -0.3999  0.6604 -0.6232
  356SOL     OW 1108   3.344   3.288   0.236  0.5705 -0.1825  0.5232
  356SOL    HW1 1109   3.402   3.357   0.268  0.6870  0.8498 -1.6951
  356SOL    HW2 1110   3.399   3.234   0.180  0.2186 -1.4489  1.3723
  357SOL     OW 1111   4.087   3.905   1.979  0.0425 -0.3540  0.4827
  357SOL    HW1 1112   4.056   3.884   1.891 -0.2096  1.9172 -0.0262
  357SOL    HW2 1113   4.182   3.892   1.975 -0.2344 -3.0879  0.7869
  358SOL     OW 1114   5.628   5.666   2.189  0.3173 -0.0536  0.1704
  358SOL    HW1 1115   5.576   5.586   2.195 -0.0741  0.2004  0.1806
  358SOL    HW2 1116   5.576   5.732   2.234  1.0619 -0.0023  0.9892
  359SOL     OW 1117   2.557   3.282   0.175 -0.5233  0.5627  0.3524
  359SOL    HW1 1118   2.555   3.305   0.082 -0.5490  2.1923  0.7334
  359SOL    HW2 1119   2.597   3.195   0.178  1.7210  1.4813 -0.9997
  360SOL     OW 1120   5.650   2.210   2.818  0.2014  0.5695 -0.0498
  360SOL    HW1 1121   5.689   2.268   2.753 -0.5255  1.2640  0.1253
  360SOL    HW2 1122   5.685   2.123   2.796  1.0569  1.0115 -0.4974
  361SOL     OW 1123   4.129   2.764   0.183 -0.5338 -0.1210 -0.0652
  361SOL    HW1 1124   4.174   2.686   0.150 -1.1891 -0.0951 -1.0912
  361SOL    HW2 1125   4.099   2.809   0.104 -1.8163  0.1681  0.5519
  362SOL     OW 1126   1.572   4.603   2.045  0.2277  0.2745  0.0072
  362SOL    HW1 1127   1.593   4.510   2.054  0.7370  0.1526 -1.9677
  362SOL    HW2 1128   1.508   4.620   2.114 -0.4411 -1.7235 -0.0545
  363SOL     OW 1129   4.440   5.525   2.236  0.7123  0.9578  0.0422
  363SOL    HW1 1130   4.455   5.439   2.196  1.3684  0.6773  0.8740
  363SOL    HW2 1131   4.527   5.563   2.247  0.5132  1.2301  0.7473
  364SOL     OW 1132   3.899   3.248   0.272 -0.5139  0.2226 -0.4025
  364SOL    HW1 1133   3.834   3.213   0.212  0.5045  0.7045 -1.8333
  364SOL    HW2 1134   3.965   3.287   0.216 -0.2799  2.0770  1.0473
  365SOL     OW 1135   5.083   1.502   2.051 -0.3432 -0.4336 -0.0169
  365SOL    HW1 1136   5.011   1.481   2.110  0.3975 -0.9728  0.7347
  365SOL    HW2 1137   5.136   1.565   2.099 -0.7804  0.6434 -0.9294
  366SOL     OW 1138   2.907   3.641   0.599 -0.4802  0.5572 -0.3137
  366SOL    HW1 1139   2.916   3.598   0.514  0.1487  2.4924 -1.2951
  366SOL    HW2 1140   2.849   3.715   0.582  0.5046  1.5893  0.6852
  367SOL     OW 1141   5.431   5.102   2.385 -0.0574  0.7416 -0.1781
  367SOL    HW1 1142   5.512   5.148   2.363 -2.1947  4.5487 -1.0261
  367SOL    HW2 1143   5.411   5.130   2.474  0.0084 -0.9557  0.3989
  368SOL     OW 1144   5.424   5.059   1.812  0.5964  0.1378 -0.1454
  368SOL    HW1 1145   5.426   5.032   1.904 -0.4287  0.8743  0.1058
  368SOL    HW2 1146   5.373   4.991   1.769  2.4809 -1.1261 -0.5237
  369SOL     OW 1147   6.159   6.143   2.664 -0.0231  0.0459 -0.1737
  369SOL    HW1 1148   6.069   6.113   2.649 -0.0239 -0.2774  0.4537
  369SOL    HW2 1149   6.164   6.157   2.759  0.7748 -0.5306 -0.1229
  370SOL     OW 1150   4.350   5.870   2.750  0.0377  0.4448 -0.0249
  370SOL    HW1 1151   4.264   5.838   2.723  1.3004 -2.1177 -1.4155
  370SOL    HW2 1152   4.369   5.822   2.831  0.2447  0.8817  0.1894
  371SOL     OW 1153   6.102   4.699   2.928 -0.8366  0.7123  0.1108
  371SOL    HW1 1154   6.195   4.715   2.914 -1.0007  0.6958 -1.1606
  371SOL    HW2 1155   6.093   4.604   2.923 -0.9530  0.7296 -0.0173
  372SOL     OW 1156   4.810   4.953   2.431 -1.0099 -0.4667 -0.1171
  372SOL    HW1 1157   4.793   5.015   2.502 -2.3852  1.6347 -2.1138
  372SOL    HW2 1158   4.764   4.873   2.457  1.4715 -1.0888  2.9206
  373SOL     OW 1159   5.791   6.257   2.876 -0.0775  0.0005  0.4499
  373SOL    HW1 1160   5.764   6.202   2.803 -0.0004  0.8235 -0.2003
  373SOL    HW2 1161   5.737   6.227   2.950  0.4726 -1.4296  0.2939
  374SOL     OW 1162   4.806   4.704   2.969  0.2261 -0.7381  0.0159
  374SOL    HW1 1163   4.881   4.758   2.946  1.0212 -0.7368  2.3809
  374SOL    HW2 1164   4.844   4.629   3.015 -0.9855 -2.5146 -1.6937
  375SOL     OW 1165   5.187   6.002   2.583 -0.7283 -0.3547  0.0005
  375SOL    HW1 1166   5.214   5.966   2.668  1.2125 -0.9428 -0.8178
  375SOL    HW2 1167   5.092   6.010   2.590 -0.5712  0.2278  2.4551
  376SOL     OW 1168   5.974   4.923   2.861 -0.2699 -0.2257 -0.1792
  376SOL    HW1 1169   6.024   4.861   2.915 -0.2811 -0.6192 -0.6187
  376SOL    HW2 1170   5.894   4.939   2.912 -0.0803 -0.2539  0.1306
  377SOL     OW 1171   5.134   4.663   2.736  0.6655  0.2750 -0.2611
  377SOL    HW1 1172   5.103   4.597   2.798  0.7636  0.5044  0.0377
  377SOL    HW2 1173   5.097   4.637   2.652  3.3253 -2.0304 -0.8382
  378SOL     OW 1174   5.196   5.685   2.375  1.1068  0.7611 -0.0695
  378SOL    HW1 1175   5.145   5.609   2.345  1.5279  0.6997 -0.6394
  378SOL    HW2 1176   5.180   5.688   2.469 -0.3909  1.0730 -0.3136
  379SOL     OW 1177   2.573   3.616   0.436  0.0406  0.1314 -0.0603
  379SOL    HW1 1178   2.599   3.705   0.414  1.9302 -0.1582  0.8309
  379SOL    HW2 1179   2.650   3.562   0.417 -1.0690 -1.3374 -0.6110
  380SOL     OW 1180   1.635   4.310   1.412 -0.4675 -0.3559 -0.0599
  380SOL    HW1 1181   1.708   4.371   1.400  0.7069 -1.5136  1.0209
  380SOL    HW2 1182   1.557   4.367   1.413  0.6209  1.2058  1.3635
  381SOL     OW 1183   5.738   4.605   2.292 -0.6317 -0.2165  0.2415
  381SOL    HW1 1184   5.669   4.652   2.340 -1.8649  0.4246 -1.9935
  381SOL    HW2 1185   5.692   4.536   2.244  0.3109 -0.0259 -1.0026
  382SOL     OW 1186   1.912   4.522   2.539  0.4608  0.0259 -0.8356
  382SOL    HW1 1187   1.820   4.503   2.560  0.2032  0.1648 -1.7786
  382SOL    HW2 1188   1.920   4.497   2.447  1.1736  0.7355 -0.9689
  383SOL     OW 1189   4.253   5.666   2.398  0.0814 -0.0961  0.2702
  383SOL    HW1 1190   4.204   5.639   2.475 -0.4456 -1.7684 -0.5888
  383SOL    HW2 1191   4.329   5.608   2.397 -0.2278 -0.5120 -0.7513
  384SOL     OW 1192   5.190   1.620   2.298  0.7370  0.2191  0.0640
  384SOL    HW1 1193   5.211   1.530   2.323  0.1236 -0.1409 -0.6772
  384SOL    HW2 1194   5.147   1.657   2.376  0.7455 -0.2143  0.2744
  385SOL     OW 1195   0.219   2.737   0.183 -0.0409  0.5370 -0.3309
  385SOL    HW1 1196   0.218   2.647   0.213  1.8777  0.0810 -1.4838
  385SOL    HW2 1197   0.308   2.750   0.148 -1.0059  2.1062 -2.4145
  386SOL     OW 1198   4.249   2.068   1.048  0.7993  0.4803  0.1620
  386SOL    HW1 1199   4.159   2.083   1.077  0.9004 -0.4768  1.0242
  386SOL    HW2 1200   4.302   2.121   1.107  0.8795 -0.0386  0.5696
  387SOL     OW 1201   3.968   2.163   0.857  0.0203 -0.2948  0.4852
  387SOL    HW1 1202   3.932   2.075   0.868  0.9980 -0.7114  0.5263
  387SOL    HW2 1203   4.063   2.149   0.848 -0.0090  0.5130 -2.0982
  388SOL     OW 1204   4.592   3.299   1.189 -0.0142  0.8803 -0.1271
  388SOL    HW1 1205   4.516   3.302   1.248  0.0644  0.7831 -0.0210
  388SOL    HW2 1206   4.638   3.218   1.213 -1.0089 -0.1689 -1.6129
  389SOL     OW 1207   1.482   3.103   0.907 -0.7540 -0.1098  0.1056
  389SOL    HW1 1208   1.387   3.099   0.899 -0.8872  0.0665  1.3617
  389SOL    HW2 1209   1.503   3.197   0.900 -0.7455 -0.0815  0.4882
  390SOL     OW 1210   1.173   2.178   0.986  0.4841  0.5808 -0.1176
  390SOL    HW1 1211   1.256   2.225   0.994  0.5384  0.3001  1.0508
  390SOL    HW2 1212   1.109   2.236   1.026  0.4953 -0.1785  1.0297
  391SOL     OW 1213   3.738   4.667   2.841 -0.5035  0.2478  0.2548
  391SOL    HW1 1214   3.646   4.689   2.822 -1.4866 -1.4807  2.5502
  391SOL    HW2 1215   3.733   4.589   2.895  2.4834 -1.3719 -1.5747
  392SOL     OW 1216   4.729   2.726   1.160  0.0571 -0.2191  0.7128
  392SOL    HW1 1217   4.807   2.670   1.164 -0.6678 -1.4611 -0.9741
  392SOL    HW2 1218   4.759   2.804   1.113 -0.0880 -1.5318 -1.7195
  393SOL     OW 1219   5.064   2.874   1.727 -0.2066  0.3305  0.5650
  393SOL    HW1 1220   5.013   2.814   1.673  3.9416  0.3847 -4.1958
  393SOL    HW2 1221   5.135   2.821   1.763  0.4340  1.3689  0.8963
  394SOL     OW 1222   0.916   2.834   0.800  0.4367  0.5891 -0.1301
  394SOL    HW1 1223   0.939   2.796   0.885 -0.5158  0.6254  0.1555
  394SOL    HW2 1224   0.890   2.924   0.821  0.6174  0.7355 -0.5237
  395SOL     OW 1225   4.888   3.036   1.865  0.5530  0.5253 -0.4220
  395SOL    HW1 1226   4.875   2.983   1.943 -0.3450 -0.0724 -0.9652
  395SOL    HW2 1227   4.938   2.980   1.806  0.0605  0.4813 -0.7963
  396SOL     OW 1228   4.553   3.017   0.877 -0.0671  0.4729 -0.0996
  396SOL    HW1 1229   4.499   2.991   0.952 -0.0121  0.1064 -0.1858
  396SOL    HW2 1230   4.535   2.951   0.810  1.0312 -0.0744  0.1245
  397SOL     OW 1231   1.377   3.367   1.829 -0.4818  0.3513  0.0239
  397SOL    HW1 1232   1.297   3.328   1.866  0.3869 -0.1746  1.4204
  397SOL    HW2 1233   1.420   3.294   1.784  0.7677 -0.2201  1.9988
  398SOL     OW 1234   4.724   2.369   1.086 -0.0251  0.4566 -0.3340
  398SOL    HW1 1235   4.678   2.420   1.153  1.8741 -0.3181  1.7184
  398SOL    HW2 1236   4.684   2.282   1.090  0.1838  0.3704 -0.0735
  399SOL     OW 1237   1.453   2.227   0.675  0.0587 -0.3443 -0.3257
  399SOL    HW1 1238   1.525   2.276   0.716 -1.0240 -0.1554  1.4767
  399SOL    HW2 1239   1.388   2.294   0.654 -0.6090 -0.7734  0.3390
  400SOL     OW 1240   4.256   3.763   0.448 -0.2261 -0.7194  0.2034
  400SOL    HW1 1241   4.212   3.717   0.520  0.8359 -0.0245  1.3239
  400SOL    HW2 1242   4.257   3.700   0.377  2.1513 -2.9126  2.0133
  401SOL     OW 1243   5.478   3.245   1.900 -0.0416  0.0695 -0.0629
  401SOL    HW1 1244   5.529   3.166   1.884 -0.3703 -0.2766  0.5619
  401SOL    HW2 1245   5.428   3.258   1.820  0.5244  0.0339 -0.4252
  402SOL     OW 1246   4.526   3.191   0.664 -0.0729  0.0724  0.1103
  402SOL    HW1 1247   4.437   3.188   0.629  0.5672 -2.9370 -1.5408
  402SOL    HW2 1248   4.532   3.114   0.721  1.8667 -0.6148 -0.9408
  403SOL     OW 1249   4.520   2.841   0.693 -0.1644  0.4401  0.3320
  403SOL    HW1 1250   4.593   2.785   0.717  0.0671  0.1324 -1.0302
  403SOL    HW2 1251   4.452   2.781   0.662 -0.1802  0.8705 -0.4727
  404SOL     OW 1252   4.966   3.561   1.268 -0.3913  0.1622 -0.0752
  404SOL    HW1 1253   5.032   3.492   1.278 -0.3369  0.0749 -0.9863
  404SOL    HW2 1254   4.930   3.548   1.181 -2.4180 -0.4672  0.7978
  405SOL     OW 1255   0.718   3.075   0.389  0.4283 -0.3685 -0.3382
  405SOL    HW1 1256   0.647   3.022   0.425  1.2216 -0.6936  0.7816
  405SOL    HW2 1257   0.785   3.075   0.457  0.2640  2.5066 -0.0649
  406SOL     OW 1258   1.454   1.954   1.525  0.0596 -0.2727  0.2583
  406SOL    HW1 1259   1.457   1.957   1.621 -0.5847  0.8175  0.2632
  406SOL    HW2 1260   1.488   1.867   1.503  1.0799 -0.2015  1.4270
  407SOL     OW 1261   4.281   2.141   0.297 -0.0931 -0.1171 -0.5326
  407SOL    HW1 1262   4.348   2.170   0.234 -1.1851 -1.2629 -2.3281
  407SOL    HW2 1263   4.199   2.173   0.260 -0.6371  0.6896  1.2831
  408SOL     OW 1264   4.106   5.840   3.047  0.5948 -0.0531 -0.1655
  408SOL    HW1 1265   4.191   5.845   3.003 -0.2253  1.4465 -1.7161
  408SOL    HW2 1266   4.100   5.921   3.097  0.3827 -0.4983  0.5391
  409SOL     OW 1267   4.086   3.332   0.112 -0.0928 -0.4158 -0.3854
  409SOL    HW1 1268   4.086   3.403   0.048  3.8109  0.9117  0.7582
  409SOL    HW2 1269   4.107   3.253   0.061 -0.4234  0.0069 -1.1723
  410SOL     OW 1270   1.736   2.493   0.595 -0.0547  0.4627 -0.1229
  410SOL    HW1 1271   1.820   2.457   0.624  0.3636  0.6691 -1.0288
  410SOL    HW2 1272   1.745   2.587   0.608 -0.0305  0.5126 -0.4885
  411SOL     OW 1273   1.771   2.781   0.667 -0.3535  0.0305  0.5766
  411SOL    HW1 1274   1.860   2.799   0.639 -0.9835  2.3387 -0.2038
  411SOL    HW2 1275   1.752   2.850   0.731 -2.2672  1.0041 -0.9333
  412SOL     OW 1276   4.252   2.810   1.296  0.1941 -0.4958 -0.0266
  412SOL    HW1 1277   4.265   2.781   1.205  2.3253  1.1446 -0.3044
  412SOL    HW2 1278   4.333   2.856   1.318 -1.0106  0.7006  2.1200
  413SOL     OW 1279   0.488   2.954   0.525  0.4374 -0.1434 -0.1981
  413SOL    HW1 1280   0.416   2.919   0.473 -1.4077 -1.0937  2.7504
  413SOL    HW2 1281   0.509   2.884   0.587  1.5931  1.3737  1.1942
  414SOL     OW 1282   1.148   2.927   1.557  0.0341 -0.2197 -0.3238
  414SOL    HW1 1283   1.152   2.858   1.491 -0.7536 -0.2667 -0.3403
  414SOL    HW2 1284   1.071   2.979   1.532  1.8292  1.9901 -1.5599
  415SOL     OW 1285   0.983   1.754   0.500 -0.1637  0.2681 -0.5883
  415SOL    HW1 1286   1.009   1.681   0.443  0.1587  0.0660 -0.1844
  415SOL    HW2 1287   0.891   1.738   0.519  0.0938 -0.4475  0.1030
  416SOL     OW 1288   4.296   2.635   1.061  0.0852 -0.2548  0.1230
  416SOL    HW1 1289   4.241   2.559   1.045  1.6641 -1.6098  0.7647
  416SOL    HW2 1290   4.378   2.615   1.014 -0.1420  1.9802 -1.3700
  417SOL     OW 1291   2.021   2.370   0.168 -0.0711  0.1933 -0.2211
  417SOL    HW1 1292   1.973   2.321   0.235 -0.6581 -0.6631 -1.2385
  417SOL    HW2 1293   1.954   2.422   0.125  0.2398  0.4485 -0.3988
  418SOL     OW 1294   1.517   3.613   1.674  0.0409 -0.0026 -0.4126
  418SOL    HW1 1295   1.462   3.535   1.679  0.6692 -0.3930  0.7976
  418SOL    HW2 1296   1.565   3.614   1.757  0.9178  1.0182 -0.9078
  419SOL     OW 1297   4.763   1.776   2.048  0.0056 -0.1186  0.0852
  419SOL    HW1 1298   4.846   1.814   2.076 -0.6201  1.0568  0.4258
  419SOL    HW2 1299   4.699   1.811   2.110 -0.5440 -2.2507  0.7968
  420SOL     OW 1300   1.359   3.340   1.339 -0.0530  0.4299 -0.2546
  420SOL    HW1 1301   1.432   3.402   1.347  1.2513 -0.9651 -0.9117
  420SOL    HW2 1302   1.284   3.395   1.316  0.7089  1.9364  0.6993
  421SOL     OW 1303   1.642   3.465   0.599 -0.3594  0.1098 -0.0760
  421SOL    HW1 1304   1.694   3.482   0.521 -0.5467 -1.0509 -0.4669
  421SOL    HW2 1305   1.569   3.528   0.594  1.8465  3.0587  1.4008
  422SOL     OW 1306   0.708   2.592   0.465 -0.3398  0.3286  0.0477
  422SOL    HW1 1307   0.656   2.518   0.433  0.9723 -2.0117  2.8666
  422SOL    HW2 1308   0.797   2.556   0.473  0.4193  2.3387  1.2076
  423SOL     OW 1309   1.189   1.933   1.108 -0.6180 -0.5385 -0.2084
  423SOL    HW1 1310   1.185   2.020   1.067  0.1631 -0.8873 -1.0654
  423SOL    HW2 1311   1.187   1.951   1.202 -1.9553  0.3186 -0.3603
  424SOL     OW 1312   1.698   3.215   0.296  0.0206  0.3423  0.2765
  424SOL    HW1 1313   1.732   3.260   0.219 -0.1920  1.3945  0.7792
  424SOL    HW2 1314   1.664   3.132   0.263  1.7532 -0.1330 -0.4640
  425SOL     OW 1315   5.218   2.561   1.623  0.0287  0.0387 -0.3776
  425SOL    HW1 1316   5.145   2.527   1.675 -0.1526 -0.2891 -0.8452
  425SOL    HW2 1317   5.200   2.533   1.534  0.1335  0.9333 -0.6967
  426SOL     OW 1318   1.706   2.374   1.484  0.5844 -0.0515 -0.1682
  426SOL    HW1 1319   1.703   2.456   1.433  0.4380  0.3060  0.4074
  426SOL    HW2 1320   1.614   2.349   1.494  0.6724 -0.9077 -1.3137
  427SOL     OW 1321   5.206   2.935   1.495  0.2791 -0.2970 -0.0833
  427SOL    HW1 1322   5.169   2.925   1.583 -1.4737 -0.7381 -0.8467
  427SOL    HW2 1323   5.165   3.014   1.461  0.2595 -0.6323 -0.8442
  428SOL     OW 1324   1.188   2.243   1.505  0.3819  0.6090  0.0475
  428SOL    HW1 1325   1.133   2.201   1.439 -0.0515  0.4158  0.5272
  428SOL    HW2 1326   1.134   2.245   1.584  0.8942  0.8400  0.3989
  429SOL     OW 1327   0.903   2.461   0.630  0.1198 -0.4910  0.0552
  429SOL    HW1 1328   0.943   2.511   0.701  0.8572  0.3588 -0.9297
  429SOL    HW2 1329   0.973   2.404   0.598 -0.2020 -0.8542 -0.0140
  430SOL     OW 1330   4.234   2.495   0.134  0.3359  0.0531 -0.3839
  430SOL    HW1 1331   4.316   2.469   0.177  0.2543  0.1232 -0.1846
  430SOL    HW2 1332   4.171   2.429   0.163 -0.3459  1.5078  1.6692
  431SOL     OW 1333   4.477   3.617   1.541  0.3789  0.3511  0.1101
  431SOL    HW1 1334   4.482   3.523   1.555 -1.6849  0.4067  1.5713
  431SOL    HW2 1335   4.564   3.649   1.566  0.3977 -0.9212  1.8560
  432SOL     OW 1336   0.928   2.343   0.023  0.1617 -0.5745  0.2094
  432SOL    HW1 1337   0.837   2.353  -0.004 -0.0568 -0.6174  0.8926
  432SOL    HW2 1338   0.969   2.291  -0.046 -0.0372  0.4229 -0.6859
  433SOL     OW 1339   2.298   2.369   1.753 -0.0112 -0.1997  0.2461
  433SOL    HW1 1340   2.289   2.278   1.725  0.3228 -0.0735 -0.3029
  433SOL    HW2 1341   2.218   2.411   1.721  0.7492  0.1306 -1.3544
  434SOL     OW 1342   1.367   2.854   0.824  0.0038  0.4170  0.1002
  434SOL    HW1 1343   1.441   2.899   0.865 -0.0175  1.1464 -0.6437
  434SOL    HW2 1344   1.344   2.909   0.750  0.3453 -1.1121 -1.1909
  435SOL     OW 1345   4.753   1.911   0.846 -0.8245 -0.2244  0.2694
  435SOL    HW1 1346   4.809   1.904   0.922 -1.4240 -1.4025  0.6338
  435SOL    HW2 1347   4.794   1.978   0.791 -1.1843  1.7499  2.2783
  436SOL     OW 1348   0.864   3.135   0.605  0.2207 -0.2475  0.3332
  436SOL    HW1 1349   0.888   3.227   0.599  1.1517 -0.4769  0.3386
  436SOL    HW2 1350   0.795   3.132   0.671 -1.0342  0.6585 -0.8845
  437SOL     OW 1351   0.621   3.381   0.782  0.2569  0.8788 -0.2518
  437SOL    HW1 1352   0.565   3.316   0.740  1.0853  0.5464 -0.8727
  437SOL    HW2 1353   0.630   3.451   0.717  3.3608 -0.6394 -1.6474
  438SOL     OW 1354   1.908   2.704   1.181  0.3832  0.1605  0.1545
  438SOL    HW1 1355   1.851   2.710   1.104  1.5077  0.4246 -0.6685
  438SOL    HW2 1356   1.985   2.755   1.159  2.3166 -2.5627  0.0313
  439SOL     OW 1357   5.276   3.249   1.724  0.6968 -0.9339 -0.3836
  439SOL    HW1 1358   5.185   3.264   1.700  0.8456  1.3732  0.2324
  439SOL    HW2 1359   5.321   3.234   1.641  0.0559 -0.1364 -0.8868
  440SOL     OW 1360   2.239   4.983   2.994  0.2218  0.3301  0.6365
  440SOL    HW1 1361   2.227   4.889   2.977  2.0588  0.4633 -2.0792
  440SOL    HW2 1362   2.297   4.986   3.070 -0.0627 -0.7335  0.9143
  441SOL     OW 1363   1.857   2.438   0.964 -0.8781 -0.0162  0.5547
  441SOL    HW1 1364   1.916   2.363   0.955 -0.5637  0.4109 -1.3059
  441SOL    HW2 1365   1.915   2.512   0.983 -1.1011 -0.0439  1.4179
  442SOL     OW 1366   4.587   2.885   1.814 -0.8511  0.3735 -0.3369
  442SOL    HW1 1367   4.563   2.938   1.890 -0.7294  0.4359 -0.3420
  442SOL    HW2 1368   4.512   2.826   1.802 -0.8022  0.2538 -0.0722
  443SOL     OW 1369   3.341   5.837   3.029  0.0784 -0.0304  0.3163
  443SOL    HW1 1370   3.364   5.798   3.113  1.8393 -0.7282 -0.4318
  443SOL    HW2 1371   3.359   5.931   3.040 -0.1974 -0.0411  0.8690
  444SOL     OW 1372   4.501   1.839   1.545  0.1348 -0.4828  0.6241
  444SOL    HW1 1373   4.459   1.759   1.513 -0.7663  0.3878 -0.4770
  444SOL    HW2 1374   4.524   1.819   1.636 -0.4562 -1.8388  0.5082
  445SOL     OW 1375   1.539   2.944   0.138 -0.5801  0.3803  0.5563
  445SOL    HW1 1376   1.546   2.919   0.230 -1.3805  0.3975  0.6297
  445SOL    HW2 1377   1.445   2.948   0.121 -0.5073 -1.9926 -0.9044
  446SOL     OW 1378   0.928   3.434   0.640 -0.0192  0.1095  0.5961
  446SOL    HW1 1379   0.908   3.516   0.684  0.9185  1.4660 -1.3665
  446SOL    HW2 1380   0.881   3.439   0.557  4.1140  1.2575 -2.0163
  447SOL     OW 1381   1.228   1.780   0.678 -0.5257  0.3161 -0.0331
  447SOL    HW1 1382   1.235   1.875   0.679 -0.9941  0.3615 -0.3539
  447SOL    HW2 1383   1.144   1.763   0.635  0.5805 -0.2844 -2.1004
  448SOL     OW 1384   4.649   3.709   0.631  0.2659 -0.0076  0.2108
  448SOL    HW1 1385   4.614   3.620   0.640  3.7882 -1.5055  1.1140
  448SOL    HW2 1386   4.681   3.731   0.719  0.0971  1.8743 -0.1705
  449SOL     OW 1387   1.170   3.540   1.349  0.0979 -0.3409  0.4354
  449SOL    HW1 1388   1.089   3.503   1.314  1.2004 -2.6733  0.1413
  449SOL    HW2 1389   1.146   3.573   1.435 -1.3729 -0.0549 -0.0587
  450SOL     OW 1390   4.616   2.511   0.492 -0.1104 -0.2925  0.0336
  450SOL    HW1 1391   4.574   2.545   0.571 -0.8855  2.5260 -1.4784
  450SOL    HW2 1392   4.698   2.473   0.524 -0.1691  1.1788  2.1759
  451SOL     OW 1393   1.521   1.685   1.518 -0.3041 -0.1434  0.0738
  451SOL    HW1 1394   1.508   1.640   1.601 -0.5355  1.3997  0.9218
  451SOL    HW2 1395   1.447   1.658   1.464  0.4209 -1.9942 -0.0417
  452SOL     OW 1396   0.792   2.189   0.292 -0.2924  0.4112 -0.5903
  452SOL    HW1 1397   0.704   2.223   0.308 -0.9304 -0.5168 -1.9188
  452SOL    HW2 1398   0.849   2.264   0.305 -1.1230  0.7113  1.6367
  453SOL     OW 1399   4.956   2.003   1.328 -0.3477  0.1563 -0.2491
  453SOL    HW1 1400   4.872   1.997   1.374 -0.1026 -0.0458  0.1823
  453SOL    HW2 1401   5.010   2.058   1.384 -0.4927  1.0861 -1.0044
  454SOL     OW 1402   4.790   3.032   1.306 -0.2194  0.1503 -0.0792
  454SOL    HW1 1403   4.792   3.036   1.210 -0.7103  0.4948 -0.0800
  454SOL    HW2 1404   4.864   3.086   1.334 -0.2374  0.2665 -0.2572
  455SOL     OW 1405   1.274   2.488   1.452  0.4001  0.2084 -0.3914
  455SOL    HW1 1406   1.310   2.488   1.364 -0.6082  1.3085 -0.8185
  455SOL    HW2 1407   1.254   2.396   1.470 -0.5579  0.1160 -1.8092
  456SOL     OW 1408   0.870   3.093   1.159  0.5461  0.5299  0.0863
  456SOL    HW1 1409   0.888   3.180   1.195  1.9716  0.2837  0.0433
  456SOL    HW2 1410   0.957   3.055   1.144 -0.0474 -1.2223  0.8668
  457SOL     OW 1411   1.016   2.502   0.873  0.4179  0.6794 -0.1667
  457SOL    HW1 1412   1.066   2.581   0.889 -0.1583  1.1990 -0.8740
  457SOL    HW2 1413   1.000   2.465   0.960 -0.2632  1.9361  0.2583
  458SOL     OW 1414   4.547   1.707   0.603  0.0457  0.4845 -0.0200
  458SOL    HW1 1415   4.495   1.627   0.598 -1.4750  1.3018  1.6245
  458SOL    HW2 1416   4.483   1.778   0.600  1.2457  1.6069  0.0051
  459SOL     OW 1417   1.663   2.593   0.034  0.1715  0.4459  0.1726
  459SOL    HW1 1418   1.610   2.660  -0.007 -1.1927  0.6544  2.1385
  459SOL    HW2 1419   1.636   2.511  -0.008 -0.7325  0.7238  0.1971
  460SOL     OW 1420   0.517   1.992   0.401 -0.0263 -0.1427  0.1934
  460SOL    HW1 1421   0.476   1.912   0.435  0.3398  0.2741  1.6999
  460SOL    HW2 1422   0.592   1.961   0.350 -1.6621 -0.8767 -1.9228
  461SOL     OW 1423   0.945   1.958   0.678  0.5586  0.1261  0.0684
  461SOL    HW1 1424   0.940   1.883   0.618  1.1509  0.7643 -0.7907
  461SOL    HW2 1425   1.030   1.998   0.660  0.1007  1.2244  0.2682
  462SOL     OW 1426   0.997   2.717   1.343 -0.0871 -0.3062 -0.4372
  462SOL    HW1 1427   0.967   2.797   1.387 -1.2596 -1.7626  1.5365
  462SOL    HW2 1428   1.090   2.713   1.362 -0.2728 -0.0734  0.5905
  463SOL     OW 1429   1.436   3.277   0.592 -0.1416  0.0158 -1.3230
  463SOL    HW1 1430   1.509   3.337   0.576  1.0725 -1.3544 -1.2185
  463SOL    HW2 1431   1.359   3.333   0.600  1.2482  1.7693  0.9522
  464SOL     OW 1432   4.708   2.656   0.736  0.1846 -0.2249 -0.0109
  464SOL    HW1 1433   4.797   2.680   0.711  1.0567 -2.9052  0.1074
  464SOL    HW2 1434   4.716   2.627   0.827 -0.9497  0.0875  0.2047
  465SOL     OW 1435   1.450   3.654   0.580 -0.1690 -0.0416 -0.1312
  465SOL    HW1 1436   1.378   3.693   0.531 -1.1710  0.4259  1.6001
  465SOL    HW2 1437   1.462   3.712   0.655  1.2523 -0.7356  0.2089
  466SOL     OW 1438   3.301   4.694   3.048 -0.0184  0.1387 -0.4479
  466SOL    HW1 1439   3.361   4.707   3.121 -0.1463 -1.4247 -0.0165
  466SOL    HW2 1440   3.223   4.655   3.088 -0.6545  0.5909 -1.2287
  467SOL     OW 1441   4.288   2.249   1.237  0.0118 -0.3125 -0.6923
  467SOL    HW1 1442   4.326   2.324   1.283  1.7350 -1.3418 -0.3363
  467SOL    HW2 1443   4.227   2.210   1.300  0.4405 -0.2247 -0.2143
  468SOL     OW 1444   4.639   2.102   1.071 -0.0580 -0.4999  0.1089
  468SOL    HW1 1445   4.725   2.062   1.062 -0.3049 -1.2509  0.8793
  468SOL    HW2 1446   4.578   2.027   1.068 -0.7342  0.0587 -0.9534
  469SOL     OW 1447   0.511   2.290   0.390 -0.0621 -0.2431  0.1531
  469SOL    HW1 1448   0.467   2.341   0.322 -0.6150 -0.1300  0.5823
  469SOL    HW2 1449   0.493   2.199   0.366 -0.6339 -0.1978  0.3748
  470SOL     OW 1450   4.900   1.984   1.053 -0.0177  0.0642 -0.4654
  470SOL    HW1 1451   4.984   1.984   1.006  0.2407 -1.0499 -0.0438
  470SOL    HW2 1452   4.925   1.989   1.146 -0.3234 -1.8682 -0.2459
  471SOL     OW 1453   1.435   2.902   1.110  0.0526  0.5747  0.2954
  471SOL    HW1 1454   1.426   2.935   1.199 -1.1532  0.0885  0.3783
  471SOL    HW2 1455   1.427   2.979   1.054  1.6380  0.9971  0.6200
  472SOL     OW 1456   2.139   2.641   1.377  0.4489 -0.8104  0.1176
  472SOL    HW1 1457   2.090   2.619   1.298 -1.4200 -0.9985  1.2804
  472SOL    HW2 1458   2.100   2.588   1.446  0.8198  0.6530  1.5226
  473SOL     OW 1459   2.165   2.381   0.417 -0.1388  0.0924  0.0341
  473SOL    HW1 1460   2.114   2.323   0.360 -0.2242  0.6305 -0.4414
  473SOL    HW2 1461   2.124   2.371   0.503 -1.1476  0.6182 -0.3635
  474SOL     OW 1462   4.311   3.249   0.333 -0.4656 -0.6176 -0.0148
  474SOL    HW1 1463   4.284   3.270   0.423 -1.4833 -2.2285  0.1144
  474SOL    HW2 1464   4.228   3.240   0.285 -0.0085 -1.4275 -0.6832
  475SOL     OW 1465   1.721   2.979   0.850  0.0002  0.1613 -0.4960
  475SOL    HW1 1466   1.783   3.047   0.874  0.3779 -0.4234  0.2335
  475SOL    HW2 1467   1.636   3.022   0.852  0.0877  0.3051  1.3310
  476SOL     OW 1468   3.509   4.416   2.889 -0.1657 -0.4924  0.1946
  476SOL    HW1 1469   3.532   4.380   2.974  0.2336  0.5475  0.5411
  476SOL    HW2 1470   3.552   4.359   2.826  1.5321  0.1060  0.7676
  477SOL     OW 1471   0.752   2.038   0.862 -0.5431 -0.6471  0.2997
  477SOL    HW1 1472   0.814   2.013   0.794  0.9293 -0.6341  1.5902
  477SOL    HW2 1473   0.676   2.070   0.814  1.4609  1.9603 -1.4289
  478SOL     OW 1474   1.678   3.207   1.725  0.3246  0.1299 -0.1975
  478SOL    HW1 1475   1.728   3.288   1.724 -0.3428  0.5512 -1.1693
  478SOL    HW2 1476   1.694   3.168   1.639  0.3088 -0.5616  0.1065
  479SOL     OW 1477   1.833   3.860   1.452  0.0692  0.0390  0.2949
  479SOL    HW1 1478   1.738   3.845   1.448  0.1621 -0.5268  0.1643
  479SOL    HW2 1479   1.846   3.941   1.402 -0.2916 -0.1394 -0.0937
  480SOL     OW 1480   5.365   3.188   1.489  0.0741  0.6446  0.0160
  480SOL    HW1 1481   5.317   3.244   1.427 -0.4066  0.2388  0.0190
  480SOL    HW2 1482   5.441   3.158   1.439  0.2050  1.1012 -0.0659
  481SOL     OW 1483   1.726   2.755   0.979  0.0394 -0.0618  0.2330
  481SOL    HW1 1484   1.688   2.693   0.917 -0.6029 -1.9097  2.3653
  481SOL    HW2 1485   1.707   2.841   0.941 -0.2482 -1.0851 -2.1374
  482SOL     OW 1486   0.945   2.197   1.357 -0.6665  0.2508  0.2398
  482SOL    HW1 1487   0.866   2.174   1.406  0.3080 -0.6981  1.4290
  482SOL    HW2 1488   0.940   2.142   1.278 -1.5712  0.7826 -0.0882
  483SOL     OW 1489   5.378   2.867   1.801 -0.1801 -0.6816  0.0242
  483SOL    HW1 1490   5.413   2.903   1.719  0.4382 -0.3084  0.4413
  483SOL    HW2 1491   5.421   2.782   1.810 -0.4053 -0.8137 -0.1394
  484SOL     OW 1492   0.635   2.735   0.673  0.1626  0.5626  0.3544
  484SOL    HW1 1493   0.721   2.752   0.711 -0.0814 -1.1001  1.7979
  484SOL    HW2 1494   0.654   2.687   0.592  0.6020 -0.5258  1.0813
  485SOL     OW 1495   4.516   2.529   0.960  0.2822 -0.3802  0.0771
  485SOL    HW1 1496   4.582   2.464   0.986  1.9281  0.3362 -2.0076
  485SOL    HW2 1497   4.480   2.495   0.878  0.6191  0.9170 -0.6358
  486SOL     OW 1498   1.472   2.221   1.465  0.1031  0.0661  0.4146
  486SOL    HW1 1499   1.475   2.125   1.469 -2.1330 -0.1650 -1.3717
  486SOL    HW2 1500   1.402   2.245   1.526  0.1395  0.4846  0.2936
  487SOL     OW 1501   4.582   3.450   0.731 -0.2559  0.3146  0.0803
  487SOL    HW1 1502   4.638   3.436   0.808  0.1201 -0.0934 -0.2639
  487SOL    HW2 1503   4.553   3.362   0.706 -0.2463  0.4312 -0.3419
  488SOL     OW 1504   0.590   3.318   0.323  0.4051 -0.4538 -0.0159
  488SOL    HW1 1505   0.529   3.302   0.251  0.1551 -1.9998  0.5095
  488SOL    HW2 1506   0.608   3.232   0.359  2.1405  0.0853  0.4868
  489SOL     OW 1507   0.556   2.100   0.682 -0.0563  0.2993  0.6062
  489SOL    HW1 1508   0.562   2.089   0.587 -1.4324 -0.2351  0.5544
  489SOL    HW2 1509   0.593   2.186   0.699  0.2393  0.3865 -0.4032
  490SOL     OW 1510   1.308   3.033   0.587  0.1151 -0.2589 -0.1558
  490SOL    HW1 1511   1.366   3.108   0.574 -0.3882 -0.0655 -1.5017
  490SOL    HW2 1512   1.283   3.007   0.498 -0.5595 -1.3583  0.3337
  491SOL     OW 1513   1.539   3.527   1.390  0.3570  0.0943 -0.3043
  491SOL    HW1 1514   1.610   3.511   1.329  0.6272 -1.1799  0.3242
  491SOL    HW2 1515   1.582   3.551   1.472  0.0941 -1.1932  0.2245
  492SOL     OW 1516   1.571   2.400   0.410  0.3741  0.1894 -0.2245
  492SOL    HW1 1517   1.629   2.416   0.484 -0.4365  1.8881  0.0877
  492SOL    HW2 1518   1.543   2.487   0.382  1.1534 -0.3167 -2.9615
  493SOL     OW 1519   4.378   3.304   0.899  0.0419 -0.0942 -0.5152
  493SOL    HW1 1520   4.419   3.226   0.863  0.6818 -0.0820  0.1775
  493SOL    HW2 1521   4.450   3.357   0.933 -0.3434  0.9943 -1.3287
  494SOL     OW 1522   4.600   2.328   1.428 -0.2813 -0.5244  0.1328
  494SOL    HW1 1523   4.594   2.412   1.382  0.0784 -0.7720 -0.3766
  494SOL    HW2 1524   4.518   2.323   1.478 -0.6870 -0.2513 -0.4902
  495SOL     OW 1525   1.560   2.739   1.946 -0.0049 -0.3795  0.3965
  495SOL    HW1 1526   1.485   2.700   1.901 -1.2811  2.1496  0.1743
  495SOL    HW2 1527   1.522   2.788   2.019  1.1690  2.3214 -0.6676
  496SOL     OW 1528   5.217   1.993   1.655  0.4258  0.1573 -0.0750
  496SOL    HW1 1529   5.307   2.016   1.677  0.3301  1.8299 -1.2157
  496SOL    HW2 1530   5.188   1.936   1.726  2.5134 -0.7983  0.0784
  497SOL     OW 1531   4.693   2.064   1.382 -0.0506 -0.4488 -0.0936
  497SOL    HW1 1532   4.628   1.998   1.360  0.4944 -0.5881 -1.4062
  497SOL    HW2 1533   4.644   2.146   1.386 -0.5004 -0.7307  0.1633
  498SOL     OW 1534   4.547   2.536   1.269 -0.4277  0.4172 -0.9533
  498SOL    HW1 1535   4.584   2.620   1.242 -1.6266  1.1522 -0.3692
  498SOL    HW2 1536   4.454   2.553   1.282 -0.1639  0.0133  2.8849
  499SOL     OW 1537   1.628   2.334   0.838  0.3878 -0.2973  0.2602
  499SOL    HW1 1538   1.555   2.357   0.896  0.9120 -0.6803  1.0800
  499SOL    HW2 1539   1.690   2.406   0.848 -0.5401  0.8679 -1.6668
  500SOL     OW 1540   1.260   2.035   0.272 -0.2704  0.0694 -0.4871
  500SOL    HW1 1541   1.274   2.130   0.277  0.6022 -0.1014  0.8273
  500SOL    HW2 1542   1.165   2.025   0.265 -0.3212  1.0472 -1.5576
  501SOL     OW 1543   4.018   2.007   1.184 -0.4812  0.4026  0.2725
  501SOL    HW1 1544   4.073   1.935   1.214  0.2340  1.5348  1.8370
  501SOL    HW2 1545   3.974   1.973   1.106  0.6049 -1.3508  0.3694
  502SOL     OW 1546   4.345   3.241   1.377  0.6068  0.1493 -0.1352
  502SOL    HW1 1547   4.277   3.199   1.326  0.3122  0.9406 -0.4152
  502SOL    HW2 1548   4.382   3.171   1.432  0.4258 -0.5474 -0.8858
  503SOL     OW 1549   0.689   2.347   0.748 -0.3471  0.2521  0.2183
  503SOL    HW1 1550   0.750   2.393   0.692 -1.3110  0.1097 -0.9978
  503SOL    HW2 1551   0.645   2.415   0.798 -0.3295  0.4895 -0.0877
  504SOL     OW 1552   1.940   3.077   1.875  0.5964  0.0125 -0.1656
  504SOL    HW1 1553   1.968   3.113   1.959 -0.6829 -0.8084  0.6384
  504SOL    HW2 1554   1.844   3.081   1.877  0.5434  0.3097 -1.7445
  505SOL     OW 1555   4.317   1.903   0.868 -0.0880  0.4038  0.0189
  505SOL    HW1 1556   4.388   1.860   0.915 -0.9620 -1.2136 -0.0696
  505SOL    HW2 1557   4.274   1.957   0.934 -0.6650 -1.0425  0.8735
  506SOL     OW 1558   1.804   2.273   0.290  0.1454 -0.3457 -0.8094
  506SOL    HW1 1559   1.755   2.340   0.338  2.0943 -1.2271  2.7311
  506SOL    HW2 1560   1.739   2.205   0.271 -0.5351 -0.6596  2.1210
  507SOL     OW 1561   1.065   2.399   1.151  0.6864  0.4221 -0.5125
  507SOL    HW1 1562   0.998   2.351   1.201  1.6492 -0.5682 -0.1096
  507SOL    HW2 1563   1.102   2.460   1.214  1.6688 -0.5903 -0.0839
  508SOL     OW 1564   5.094   3.400   2.067 -0.3618  0.0439  0.3762
  508SOL    HW1 1565   5.096   3.482   2.117  1.6943  0.0101  0.4156
  508SOL    HW2 1566   5.057   3.424   1.983  0.1219  1.0147  0.4240
  509SOL     OW 1567   1.804   3.502   1.262 -0.2260  0.1003 -0.0612
  509SOL    HW1 1568   1.788   3.478   1.171  0.4124 -2.0479  0.3236
  509SOL    HW2 1569   1.844   3.589   1.257 -3.8931  1.9367 -1.5040
  510SOL     OW 1570   4.773   2.218   1.628  0.2042  0.6167  0.1418
  510SOL    HW1 1571   4.766   2.138   1.575 -0.1402  0.2697  0.7062
  510SOL    HW2 1572   4.705   2.275   1.593 -1.3820 -0.3652  1.4772
  511SOL     OW 1573   1.663   2.023   0.179  0.6042 -0.6343  0.1566
  511SOL    HW1 1574   1.740   2.011   0.123  2.0198  1.1140  1.6480
  511SOL    HW2 1575   1.685   1.977   0.260 -0.6407 -1.4872  0.0500
  512SOL     OW 1576   1.531   2.640   0.279 -0.2102  0.2886  0.4507
  512SOL    HW1 1577   1.572   2.626   0.193 -1.6606 -0.3067 -0.1894
  512SOL    HW2 1578   1.575   2.717   0.315  1.0973 -0.0310 -0.3931
  513SOL     OW 1579   1.221   3.131   0.854  0.0831 -0.3505 -0.0736
  513SOL    HW1 1580   1.182   3.089   0.777  0.3133 -0.7798  0.0465
  513SOL    HW2 1581   1.164   3.207   0.870 -0.7849 -1.0378  0.1791
  514SOL     OW 1582   4.460   2.385   0.738 -0.4377 -0.4726 -0.7755
  514SOL    HW1 1583   4.428   2.373   0.649 -2.2472 -1.2270 -0.0772
  514SOL    HW2 1584   4.497   2.300   0.762 -2.3597 -1.1622  0.0343
  515SOL     OW 1585   4.544   2.100   0.808  0.2149 -0.3439  0.3486
  515SOL    HW1 1586   4.573   2.106   0.899 -1.3914 -2.3073  1.0691
  515SOL    HW2 1587   4.593   2.026   0.772 -0.2615 -0.5489  0.1081
  516SOL     OW 1588   5.360   2.321   1.713 -0.2912  0.2284 -0.4647
  516SOL    HW1 1589   5.332   2.412   1.715 -1.0187  0.0040 -0.0556
  516SOL    HW2 1590   5.300   2.276   1.772  0.7777 -0.3177  0.2554
  517SOL     OW 1591   5.616   2.270   1.835  0.3472 -0.2231  0.2786
  517SOL    HW1 1592   5.669   2.329   1.781  0.5723 -1.7530 -1.2634
  517SOL    HW2 1593   5.528   2.279   1.800  0.5851 -1.6050 -0.7743
  518SOL     OW 1594   4.205   3.101   0.602 -0.2542  0.1809 -0.2153
  518SOL    HW1 1595   4.162   3.057   0.676  0.6351  0.7647  0.6737
  518SOL    HW2 1596   4.237   3.029   0.547  1.0046 -0.3182  1.1115
  519SOL     OW 1597   4.126   3.255   0.976 -0.1163  0.0555  0.2405
  519SOL    HW1 1598   4.214   3.287   0.956 -0.3510 -0.5624 -2.0782
  519SOL    HW2 1599   4.070   3.333   0.968  0.2704  0.7058  2.8535
  520SOL     OW 1600   4.787   2.938   1.004 -0.0037 -0.6610 -0.0953
  520SOL    HW1 1601   4.722   2.969   0.941  0.7225 -1.3418 -1.2237
  520SOL    HW2 1602   4.866   2.925   0.952  0.8558 -0.4992  1.1197
  521SOL     OW 1603   1.128   2.997   1.131  0.2956 -0.7241  0.0426
  521SOL    HW1 1604   1.207   3.008   1.184 -0.3291 -1.6186  1.2142
  521SOL    HW2 1605   1.146   3.046   1.050  2.3612 -1.5595 -0.0738
  522SOL     OW 1606   4.159   2.404   1.024 -0.2442 -0.4296 -0.6722
  522SOL    HW1 1607   4.160   2.369   0.935  0.5519 -0.2459 -0.7456
  522SOL    HW2 1608   4.171   2.328   1.080  0.3714 -0.4146 -0.7790
  523SOL     OW 1609   4.530   2.441   1.706 -0.0380 -0.2945  1.0908
  523SOL    HW1 1610   4.457   2.491   1.741 -1.2618 -1.1659 -0.1356
  523SOL    HW2 1611   4.604   2.502   1.707 -1.1934  1.1663  0.7128
  524SOL     OW 1612   1.326   3.054   1.742 -0.3838 -0.2559  0.2416
  524SOL    HW1 1613   1.281   3.012   1.669 -0.7907 -1.5965  1.2311
  524SOL    HW2 1614   1.397   2.994   1.765 -0.7296 -0.2267  1.4335
  525SOL     OW 1615   1.000   2.025   0.356  0.2926  0.3060  0.8830
  525SOL    HW1 1616   1.004   1.946   0.303  0.3044 -0.7983  2.4767
  525SOL    HW2 1617   0.909   2.052   0.352  0.4220  0.6468 -0.2353
  526SOL     OW 1618   1.452   2.387   1.250  0.6922 -0.3452 -0.3793
  526SOL    HW1 1619   1.531   2.438   1.264  0.8994 -1.1011  1.4890
  526SOL    HW2 1620   1.460   2.313   1.309 -1.7563 -0.0529  0.4500
  527SOL     OW 1621   4.315   3.589   1.818 -0.1022 -0.1894 -0.4335
  527SOL    HW1 1622   4.221   3.591   1.839  0.1076 -2.2201  1.0268
  527SOL    HW2 1623   4.325   3.513   1.761  0.6508  0.1140 -0.7176
  528SOL     OW 1624   5.043   2.342   1.206  0.2446  0.1748 -0.0872
  528SOL    HW1 1625   4.957   2.318   1.241  0.0302  1.2591  0.1723
  528SOL    HW2 1626   5.053   2.289   1.127 -0.7768  0.2158 -0.2535
  529SOL     OW 1627   4.876   3.705   1.974  0.0457 -0.0859  0.0800
  529SOL    HW1 1628   4.835   3.687   2.058  0.9391  1.1289  0.8004
  529SOL    HW2 1629   4.806   3.691   1.910 -1.5337  1.9080  1.2573
  530SOL     OW 1630   0.956   2.408   0.311 -0.3882  0.5126  0.3386
  530SOL    HW1 1631   0.936   2.500   0.332 -0.2738  0.3580  1.1569
  530SOL    HW2 1632   0.950   2.404   0.216 -2.2670  0.9288  0.4112
  531SOL     OW 1633   4.491   2.917   1.363  0.4050  0.1393  0.4588
  531SOL    HW1 1634   4.501   2.895   1.456  0.9084  0.6973  0.5429
  531SOL    HW2 1635   4.579   2.942   1.335  0.1232  0.6514  0.0068
  532SOL     OW 1636   1.263   2.796   1.357  0.0400 -0.1017 -0.2947
  532SOL    HW1 1637   1.300   2.884   1.357  1.1956 -0.5359  1.1252
  532SOL    HW2 1638   1.339   2.739   1.370 -0.3465 -1.5177 -3.4316
  533SOL     OW 1639   1.419   2.690   0.604  0.4055  0.4723 -0.2219
  533SOL    HW1 1640   1.403   2.596   0.591  2.8466  0.2673 -2.8267
  533SOL    HW2 1641   1.410   2.703   0.698  1.2579 -2.6715  0.4149
  534SOL     OW 1642   1.952   3.932   1.029  0.9093  0.1970  0.0001
  534SOL    HW1 1643   2.005   3.916   1.107  0.0002 -0.3143  0.5289
  534SOL    HW2 1644   1.943   4.027   1.026  1.4712  0.2625  0.1518
  535SOL     OW 1645   1.264   3.932   1.426  0.1344  0.4408 -0.0485
  535SOL    HW1 1646   1.180   3.887   1.433  0.1000  0.7317  2.6771
  535SOL    HW2 1647   1.310   3.887   1.356 -2.1143 -0.0141 -1.3164
  536SOL     OW 1648   4.320   2.856   0.924 -0.2154  0.4947  0.3130
  536SOL    HW1 1649   4.355   2.814   0.845  0.6425  1.2466  0.2844
  536SOL    HW2 1650   4.307   2.783   0.985  0.0539  0.0280 -0.1742
  537SOL     OW 1651   5.062   3.564   1.829 -0.1271  0.0427  0.2351
  537SOL    HW1 1652   4.994   3.505   1.797 -0.3551  0.2240  0.3813
  537SOL    HW2 1653   5.016   3.624   1.887 -0.0340  0.8363 -0.4899
  538SOL     OW 1654   3.216   4.384   2.857 -0.3442  0.1205  0.2684
  538SOL    HW1 1655   3.236   4.300   2.816  1.3165  0.2950  0.6517
  538SOL    HW2 1656   3.300   4.429   2.862 -1.0993  1.5634  0.6394
  539SOL     OW 1657   2.021   2.046   0.299  0.8389  0.3782 -0.0491
  539SOL    HW1 1658   1.969   2.031   0.220  0.3549  1.3935  0.0559
  539SOL    HW2 1659   2.032   1.959   0.337  0.1654  0.0047 -0.6719
  540SOL     OW 1660   1.454   3.347   0.305 -0.0208 -0.4427 -0.2381
  540SOL    HW1 1661   1.538   3.304   0.293  0.3101  0.1409 -0.0367
  540SOL    HW2 1662   1.427   3.324   0.394  0.2200 -0.1279 -0.0822
  541SOL     OW 1663   4.385   3.613   2.119 -0.6272 -0.3437 -0.4299
  541SOL    HW1 1664   4.302   3.570   2.142 -1.3740  0.9640 -0.5793
  541SOL    HW2 1665   4.381   3.624   2.024  0.0580 -0.9356 -0.5319
  542SOL     OW 1666   1.226   2.393   0.646  0.2717  0.4529 -0.5385
  542SOL    HW1 1667   1.176   2.400   0.728  0.5349  0.2934 -0.3603
  542SOL    HW2 1668   1.183   2.322   0.599  1.4240 -0.9507  0.4239
  543SOL     OW 1669   4.977   3.177   1.442  0.1408 -0.3090 -0.1512
  543SOL    HW1 1670   4.980   3.210   1.532 -0.7978 -0.2527 -0.1387
  543SOL    HW2 1671   5.050   3.222   1.398 -1.1396  1.8804 -0.1633
  544SOL     OW 1672   0.831   3.425   0.372  0.2540 -0.2584  0.1777
  544SOL    HW1 1673   0.864   3.459   0.289  1.5711 -0.2725  0.6628
  544SOL    HW2 1674   0.759   3.367   0.348  0.9844 -0.7201 -1.0050
  545SOL     OW 1675   1.641   3.960   1.208  0.1787  0.1947 -0.0411
  545SOL    HW1 1676   1.722   4.010   1.222  0.0846  0.7186 -1.2861
  545SOL    HW2 1677   1.571   4.018   1.238  0.0815  0.7858 -1.3467
  546SOL     OW 1678   1.797   1.868   0.656  0.1737 -0.7696 -0.4907
  546SOL    HW1 1679   1.872   1.820   0.690  0.0179  0.8197  2.4481
  546SOL    HW2 1680   1.836   1.945   0.614  0.2870  0.0507  1.0248
  547SOL     OW 1681   4.240   2.198   0.810 -0.3308  0.0077 -0.5111
  547SOL    HW1 1682   4.287   2.223   0.730 -0.2991 -2.4264 -1.3194
  547SOL    HW2 1683   4.302   2.142   0.857 -1.2030 -0.4684  0.0801
  548SOL     OW 1684   1.182   2.922   0.169 -0.0512  0.0621  0.4206
  548SOL    HW1 1685   1.203   3.007   0.207  1.7809 -0.0399 -0.2750
  548SOL    HW2 1686   1.173   2.863   0.245 -0.5774  0.6930  0.8619
  549SOL     OW 1687   4.631   3.098   1.603 -0.2175  0.0579 -0.0514
  549SOL    HW1 1688   4.715   3.135   1.574 -0.2671  0.8541  0.7560
  549SOL    HW2 1689   4.656   3.018   1.650  0.1549  0.5858  0.6763
  550SOL     OW 1690   1.064   2.243   0.518  0.4649  0.0694  0.2745
  550SOL    HW1 1691   1.049   2.310   0.450  1.6039  1.9960  1.8402
  550SOL    HW2 1692   1.049   2.160   0.472  0.3567  1.3062 -2.1177
  551SOL     OW 1693   3.725   4.985   2.956  0.3968 -0.3074 -0.0355
  551SOL    HW1 1694   3.819   4.993   2.937  0.3196 -0.3748 -0.4540
  551SOL    HW2 1695   3.714   5.028   3.040  0.5718  0.9298 -0.6256
  552SOL     OW 1696   4.364   3.043   1.654 -0.0264  0.1906 -0.4949
  552SOL    HW1 1697   4.444   3.089   1.626  0.4400 -0.8234 -0.8738
  552SOL    HW2 1698   4.351   3.071   1.745  1.7009 -0.8608  0.1222
  553SOL     OW 1699   1.630   2.880   1.444  0.0242 -0.0766 -0.0109
  553SOL    HW1 1700   1.714   2.911   1.411 -1.8421  3.8948 -1.7480
  553SOL    HW2 1701   1.639   2.883   1.539  3.2620 -4.8438  0.1671
  554SOL     OW 1702   1.339   2.633   0.989  0.2834  0.5170 -0.3416
  554SOL    HW1 1703   1.391   2.680   1.055 -1.7517  0.7808  1.1636
  554SOL    HW2 1704   1.326   2.697   0.919  1.2899  0.7069 -0.3705
  555SOL     OW 1705   0.848   2.271   0.956 -0.6050 -0.5771  0.3017
  555SOL    HW1 1706   0.806   2.192   0.922  1.3435 -1.2652 -0.6631
  555SOL    HW2 1707   0.847   2.333   0.884 -1.4956  0.0389  0.8324
  556SOL     OW 1708   4.809   3.196   0.660 -0.2642 -0.0792 -0.1297
  556SOL    HW1 1709   4.713   3.196   0.663 -0.4633 -0.5076 -3.0178
  556SOL    HW2 1710   4.831   3.107   0.630  1.0900 -0.1422  0.9810
  557SOL     OW 1711   2.025   2.413   1.498 -0.0411 -0.4879  0.1821
  557SOL    HW1 1712   1.952   2.396   1.557  0.2156  0.5914  0.8318
  557SOL    HW2 1713   2.061   2.326   1.479 -0.7081 -0.9220  0.8603
  558SOL     OW 1714   4.096   3.345   0.524  0.1889 -0.3620 -0.1916
  558SOL    HW1 1715   4.024   3.321   0.465  0.6014  0.3280 -0.9826
  558SOL    HW2 1716   4.116   3.263   0.570 -0.5105 -0.7772 -0.5953
  559SOL     OW 1717   4.708   2.661   1.707  0.0004 -0.2311  0.5066
  559SOL    HW1 1718   4.772   2.687   1.641 -1.1425  0.4104 -0.3864
  559SOL    HW2 1719   4.667   2.744   1.735 -0.7178 -0.6644  0.7683
  560SOL     OW 1720   0.951   2.067   1.121 -0.4629  0.0351 -0.3581
  560SOL    HW1 1721   0.900   2.104   1.049  0.1354  1.4917 -0.0790
  560SOL    HW2 1722   1.022   2.019   1.079  0.2614  1.4208 -0.7811
  561SOL     OW 1723   2.253   4.334   2.778 -0.0184  0.0295  0.7453
  561SOL    HW1 1724   2.323   4.287   2.823 -1.4376 -0.7852  2.2535
  561SOL    HW2 1725   2.198   4.369   2.849 -0.2447  2.1102 -0.3519
  562SOL     OW 1726   1.644   2.608   1.283  0.2971  0.1128  0.2521
  562SOL    HW1 1727   1.595   2.689   1.288 -2.0194 -1.0813 -1.2454
  562SOL    HW2 1728   1.723   2.631   1.234 -0.9298  1.2572 -1.2999
  563SOL     OW 1729   0.276   2.044   0.219  0.2039  0.4353  0.0986
  563SOL    HW1 1730   0.283   1.949   0.209  0.0585  0.4922 -0.6006
  563SOL    HW2 1731   0.315   2.062   0.305  0.4996 -0.2212  0.1086
  564SOL     OW 1732   1.199   2.811   0.407  0.0942 -0.0451  0.5103
  564SOL    HW1 1733   1.112   2.825   0.445  0.2190  1.4592  0.3153
  564SOL    HW2 1734   1.254   2.790   0.482 -0.3819 -0.8322  0.6586
  565SOL     OW 1735   5.088   2.561   1.374  0.5297  0.6108 -0.3750
  565SOL    HW1 1736   5.164   2.617   1.360  0.7170  0.0404 -1.8067
  565SOL    HW2 1737   5.088   2.501   1.299 -1.8814  1.2248 -0.9540
  566SOL     OW 1738   1.576   3.811   1.492  0.4122 -0.2417  0.1254
  566SOL    HW1 1739   1.510   3.880   1.496  0.2698 -0.3661 -0.0547
  566SOL    HW2 1740   1.550   3.749   1.561 -1.3566 -1.7795 -1.7743
  567SOL     OW 1741   5.065   2.177   1.532  0.8249  0.6729  0.3001
  567SOL    HW1 1742   5.106   2.114   1.591 -0.6897 -0.9874 -0.3285
  567SOL    HW2 1743   5.038   2.249   1.588  0.4367 -0.3449  1.4547
  568SOL     OW 1744   1.666   3.189   2.000 -0.3108 -0.3175 -0.0898
  568SOL    HW1 1745   1.619   3.229   1.928 -1.3640  0.0468  0.7727
  568SOL    HW2 1746   1.608   3.120   2.032 -1.1344  1.2724  2.1072
  569SOL     OW 1747   4.446   3.357   1.675 -0.4499 -0.1423  0.2472
  569SOL    HW1 1748   4.536   3.325   1.673 -0.0635  0.4697  3.0815
  569SOL    HW2 1749   4.406   3.310   1.748 -1.4017  1.9808  1.1673
  570SOL     OW 1750   1.889   2.907   1.358 -0.2632  0.6393  0.1621
  570SOL    HW1 1751   1.880   2.827   1.305 -0.6208  0.2591  0.7786
  570SOL    HW2 1752   1.981   2.908   1.385  0.0102  1.0189 -0.7318
  571SOL     OW 1753   1.470   1.859   0.803  1.0780 -0.1883 -0.2106
  571SOL    HW1 1754   1.387   1.812   0.796  1.2791 -0.5676 -0.1297
  571SOL    HW2 1755   1.465   1.928   0.738  0.4444  0.1856  0.2304
  572SOL     OW 1756   4.918   2.501   0.950  0.3459 -0.2340  0.3883
  572SOL    HW1 1757   4.846   2.451   0.988 -0.1310 -0.7654 -1.1489
  572SOL    HW2 1758   4.986   2.500   1.017  0.2496 -2.7043  0.5385
  573SOL     OW 1759   2.104   1.968   1.491 -0.8380 -0.0878  0.2964
  573SOL    HW1 1760   2.127   2.038   1.430 -1.4588  0.3189  0.5333
  573SOL    HW2 1761   2.052   1.907   1.439  1.1807 -1.3237 -0.4146
  574SOL     OW 1762   1.639   2.921   1.740  0.1312  0.0160 -0.3411
  574SOL    HW1 1763   1.623   3.010   1.770 -1.7222 -0.6558  0.8493
  574SOL    HW2 1764   1.618   2.866   1.816 -1.6188 -1.5831 -1.8959
  575SOL     OW 1765   1.227   3.148   0.317 -0.4756 -0.0412 -0.0319
  575SOL    HW1 1766   1.174   3.182   0.389  2.3161 -0.3639  2.3673
  575SOL    HW2 1767   1.273   3.224   0.283 -1.8594  0.1261 -1.6438
  576SOL     OW 1768   1.029   3.343   0.885  0.0964 -0.4534  0.1710
  576SOL    HW1 1769   1.034   3.354   0.790  0.9956  2.6484  0.4540
  576SOL    HW2 1770   0.940   3.370   0.907  0.5965  1.1818  0.3534
  577SOL     OW 1771   0.986   2.752   1.064  0.6906 -0.0220 -0.0047
  577SOL    HW1 1772   1.040   2.830   1.078  0.3909  0.4089 -1.0900
  577SOL    HW2 1773   0.964   2.721   1.152  0.2368  1.5251  0.4583
  578SOL     OW 1774   1.338   2.305   0.263  0.1361 -0.3076 -0.0546
  578SOL    HW1 1775   1.296   2.386   0.237 -1.6208 -1.5291 -1.2573
  578SOL    HW2 1776   1.425   2.331   0.292 -0.2046  1.9292 -0.8666
  579SOL     OW 1777   1.888   3.206   0.937  0.5704 -0.0991  0.3291
  579SOL    HW1 1778   1.840   3.288   0.950 -0.8294 -0.8860  0.3612
  579SOL    HW2 1779   1.900   3.172   1.026  1.8043  0.4151  0.3699
  580SOL     OW 1780   4.584   3.374   1.985  0.1392  0.1119  0.3651
  580SOL    HW1 1781   4.507   3.430   1.997  0.5273  0.3837  1.8753
  580SOL    HW2 1782   4.570   3.301   2.045 -0.9931 -2.2396 -2.5191
  581SOL     OW 1783   4.314   2.615   0.694 -0.1894  0.1806  0.3248
  581SOL    HW1 1784   4.236   2.590   0.644  0.5411  0.3823 -0.9543
  581SOL    HW2 1785   4.354   2.532   0.720 -2.0161  0.0214  3.0068
  582SOL     OW 1786   5.001   3.251   1.707 -0.8440 -0.2827 -0.3227
  582SOL    HW1 1787   4.999   3.170   1.759  0.0037 -0.4556 -0.5405
  582SOL    HW2 1788   4.936   3.307   1.748 -0.6329 -0.6496  0.5449
  583SOL     OW 1789   1.712   2.017   0.879  0.1393 -0.3194  0.0324
  583SOL    HW1 1790   1.728   1.959   0.804  0.4027  0.5580 -0.6170
  583SOL    HW2 1791   1.668   2.094   0.840 -1.3387 -0.6014  1.0518
  584SOL     OW 1792   4.297   2.299   0.523  0.4744  0.0737 -0.6760
  584SOL    HW1 1793   4.283   2.235   0.453  0.8438  0.1137 -0.7875
  584SOL    HW2 1794   4.223   2.359   0.516 -0.0630 -0.5421 -0.3459
  585SOL     OW 1795   1.401   3.062   1.343  0.1205 -0.0317  0.3177
  585SOL    HW1 1796   1.373   3.150   1.366  0.5106  0.0630  0.4406
  585SOL    HW2 1797   1.468   3.040   1.408  1.6844  0.4784 -1.0622
  586SOL     OW 1798   4.200   1.987   1.463  0.1292 -0.6066  0.0114
  586SOL    HW1 1799   4.149   2.016   1.539 -1.2576  1.4533 -1.5950
  586SOL    HW2 1800   4.267   2.055   1.452 -1.6447  0.9288 -2.3641
  587SOL     OW 1801   0.749   3.123   0.880 -0.3718  0.0145  0.6673
  587SOL    HW1 1802   0.780   3.142   0.968 -2.2071 -0.1457  1.3945
  587SOL    HW2 1803   0.683   3.190   0.863 -1.6951 -1.3084  0.3645
  588SOL     OW 1804   1.256   2.052   0.748 -0.1271 -0.0032  0.1711
  588SOL    HW1 1805   1.219   2.081   0.832  0.3217 -1.8000  1.0379
  588SOL    HW2 1806   1.326   2.114   0.730 -2.1753  2.2625 -0.4866
  589SOL     OW 1807   0.998   1.423   1.397  0.3819  0.1974  0.1923
  589SOL    HW1 1808   1.090   1.400   1.385  0.2445 -0.7307  0.8845
  589SOL    HW2 1809   0.992   1.455   1.487 -0.1379 -0.5910  0.4434
  590SOL     OW 1810   0.948   2.875   0.530  0.2073 -0.3053  0.0499
  590SOL    HW1 1811   0.970   2.823   0.607  2.0709 -0.6638 -0.6603
  590SOL    HW2 1812   0.940   2.965   0.562 -1.0055 -0.7183  0.9582
  591SOL     OW 1813   4.874   3.501   1.004 -0.3245  0.1070 -0.4434
  591SOL    HW1 1814   4.780   3.498   1.021  0.0255 -0.3360  1.6056
  591SOL    HW2 1815   4.886   3.445   0.927 -1.3371 -3.0578  1.5105
  592SOL     OW 1816   1.919   1.728   0.070  0.1411 -0.0614 -0.6676
  592SOL    HW1 1817   1.894   1.639   0.044 -0.1602 -0.1570 -0.0509
  592SOL    HW2 1818   1.948   1.769  -0.012  0.2027 -0.6969 -0.9722
  593SOL     OW 1819   1.390   2.353   0.987  0.7774  0.0764  0.0098
  593SOL    HW1 1820   1.365   2.441   0.962 -2.6902 -1.2662 -1.7987
  593SOL    HW2 1821   1.395   2.356   1.083 -0.7136  1.8869  0.0732
  594SOL     OW 1822   1.634   2.129   0.472  0.3043 -0.0117  0.1951
  594SOL    HW1 1823   1.585   2.187   0.529  1.1044  0.5188  0.3595
  594SOL    HW2 1824   1.574   2.057   0.453  0.2049 -0.5148  2.1774
  595SOL     OW 1825   4.567   2.904   0.427  0.4027  0.1150  0.1899
  595SOL    HW1 1826   4.540   2.843   0.359  0.3752 -0.4288  0.6847
  595SOL    HW2 1827   4.514   2.881   0.503  0.6781  0.4926  0.5044
  596SOL     OW 1828   1.119   3.606   0.309  0.5272  0.1293 -0.1410
  596SOL    HW1 1829   1.202   3.638   0.275 -0.6532  2.5830 -1.0010
  596SOL    HW2 1830   1.090   3.540   0.246  1.2394  0.1695 -0.5145
  597SOL     OW 1831   4.733   2.181   1.934 -0.0723  0.1064  0.0619
  597SOL    HW1 1832   4.640   2.183   1.954  0.0408  0.0734  0.6111
  597SOL    HW2 1833   4.739   2.207   1.842 -0.6190  0.1219  0.0305
  598SOL     OW 1834   4.336   2.212   2.767  0.2378 -0.1031 -0.4671
  598SOL    HW1 1835   4.361   2.128   2.728 -0.6256 -1.2454  1.3187
  598SOL    HW2 1836   4.246   2.199   2.796  0.5357  0.9802  1.0462
  599SOL     OW 1837   4.207   2.237   2.476 -0.0675 -0.2500 -0.5796
  599SOL    HW1 1838   4.150   2.304   2.512 -0.0703  0.9990 -2.7418
  599SOL    HW2 1839   4.279   2.230   2.539 -1.8201 -0.8676  1.4866
  600SOL     OW 1840   5.136   2.848   2.919  0.1539 -0.3018 -1.1004
  600SOL    HW1 1841   5.134   2.928   2.866  1.2962  0.2073 -0.4027
  600SOL    HW2 1842   5.214   2.801   2.888  0.7178 -0.0919 -0.0223
  601SOL     OW 1843   5.869   3.358   2.984  0.2872 -0.1186  0.2401
  601SOL    HW1 1844   5.908   3.351   3.071  1.5309  1.1208 -0.1886
  601SOL    HW2 1845   5.827   3.444   2.982 -3.2494 -1.6229  0.9177
  602SOL     OW 1846   1.711   2.759   2.338 -0.2618 -0.1348 -0.2975
  602SOL    HW1 1847   1.780   2.801   2.390 -0.0500 -0.8653  0.0315
  602SOL    HW2 1848   1.630   2.780   2.385 -0.2063  0.2499 -0.3681
  603SOL     OW 1849   1.968   2.477   2.303 -0.0685  0.3864  0.0070
  603SOL    HW1 1850   1.916   2.458   2.225 -0.4083  0.6647  0.1578
  603SOL    HW2 1851   1.967   2.573   2.309 -1.1911  0.3300  1.0970
  604SOL     OW 1852   3.014   0.575   0.111 -0.1231  0.4176 -0.0648
  604SOL    HW1 1853   3.007   0.631   0.034  0.4868  0.4050 -0.1396
  604SOL    HW2 1854   2.954   0.614   0.175  2.2561  2.8545  0.8737
  605SOL     OW 1855   4.879   2.963   2.333 -0.0976 -0.0663  0.0948
  605SOL    HW1 1856   4.825   2.956   2.412  0.2816  1.4104  0.5227
  605SOL    HW2 1857   4.878   3.056   2.312  0.3035 -0.3541 -1.3076
  606SOL     OW 1858   4.833   3.124   2.581  0.2328  0.2048  0.1530
  606SOL    HW1 1859   4.864   3.209   2.550  0.0147  0.3139  0.2298
  606SOL    HW2 1860   4.851   3.125   2.675  0.5448  0.0273  0.0947
  607SOL     OW 1861   3.429   1.316   0.366  0.1583  0.1759 -0.3619
  607SOL    HW1 1862   3.493   1.248   0.344  1.4257  0.2407  2.5817
  607SOL    HW2 1863   3.344   1.273   0.353  0.8043 -0.7181 -2.0456
  608SOL     OW 1864   5.933   2.045   2.411 -0.2565  0.0248  0.0651
  608SOL    HW1 1865   5.936   2.137   2.385 -0.0023 -0.0803 -0.2908
  608SOL    HW2 1866   5.974   2.043   2.498  2.8958 -0.1883 -1.2824
  609SOL     OW 1867   4.396   4.076   2.398 -0.6271  0.4965  0.3627
  609SOL    HW1 1868   4.484   4.088   2.433 -1.3509  1.1513  2.0580
  609SOL    HW2 1869   4.409   4.025   2.317  1.2280  0.0670  0.8853
  610SOL     OW 1870   4.288   3.807   2.443 -0.1427  0.1418  0.6119
  610SOL    HW1 1871   4.350   3.735   2.429  0.1281  0.4301  0.3268
  610SOL    HW2 1872   4.208   3.778   2.400  0.5215  0.7909 -1.1598
  611SOL     OW 1873   4.971   2.593   2.891  0.5973  0.6922  0.5263
  611SOL    HW1 1874   5.003   2.681   2.910  0.3924  1.0829 -0.8519
  611SOL    HW2 1875   4.900   2.579   2.954 -0.1989  2.0178 -0.0478
  612SOL     OW 1876   2.791   1.044   0.922  0.1283  0.4124 -0.0275
  612SOL    HW1 1877   2.851   1.082   0.857  0.0254 -1.3809 -1.2543
  612SOL    HW2 1878   2.843   0.974   0.964 -0.8168 -0.6704 -0.5909
  613SOL     OW 1879   4.932   2.763   1.509  0.2637 -0.5047  0.0739
  613SOL    HW1 1880   4.986   2.697   1.465  0.1802  0.1351 -1.0256
  613SOL    HW2 1881   4.912   2.827   1.441  0.6589  0.8763  1.2041
  614SOL     OW 1882   3.548   3.924   0.377 -0.0741  0.7403  0.5809
  614SOL    HW1 1883   3.634   3.950   0.342 -0.0024  0.3038  0.4275
  614SOL    HW2 1884   3.500   4.007   0.387 -0.5424  0.7966 -1.7035
  615SOL     OW 1885   4.524   2.340   2.123  0.1794  0.0490 -0.0853
  615SOL    HW1 1886   4.561   2.418   2.082 -2.6266  0.4628 -2.0489
  615SOL    HW2 1887   4.508   2.280   2.051  0.8533 -1.8009  1.2178
  616SOL     OW 1888   1.939   3.565   2.445 -0.4513  0.1020 -0.3397
  616SOL    HW1 1889   1.854   3.523   2.460 -0.9766  0.7468 -1.3678
  616SOL    HW2 1890   1.980   3.566   2.531 -0.3088 -2.6626 -0.3041
  617SOL     OW 1891   4.156   3.493   2.206  0.0217  0.0683  0.2146
  617SOL    HW1 1892   4.091   3.428   2.181 -0.4409  1.0901 -1.4426
  617SOL    HW2 1893   4.106   3.559   2.254  0.1762 -0.0054  0.4761
  618SOL     OW 1894   6.113   2.700   2.752 -0.2427 -0.1118 -0.2738
  618SOL    HW1 1895   6.175   2.642   2.707 -0.5610 -0.3231 -0.4480
  618SOL    HW2 1896   6.162   2.734   2.827  0.4805  0.6765 -1.0857
  619SOL     OW 1897   3.771   0.690   0.070 -0.2165 -0.3005  0.5324
  619SOL    HW1 1898   3.740   0.599   0.069  0.0403 -0.3947  0.7191
  619SOL    HW2 1899   3.733   0.730  -0.008 -0.7450 -0.4276  0.7247
  620SOL     OW 1900   5.033   3.333   2.678 -0.5668 -0.3798 -0.4683
  620SOL    HW1 1901   5.062   3.381   2.601 -1.2143  0.8290  0.0019
  620SOL    HW2 1902   4.965   3.389   2.717 -0.6695 -1.2321  0.6447
  621SOL     OW 1903   3.358   0.717   0.781  0.2298 -0.7090 -0.6005
  621SOL    HW1 1904   3.320   0.710   0.693 -1.7004 -1.6113  0.2570
  621SOL    HW2 1905   3.387   0.808   0.787  0.2779 -0.5933 -2.1071
  622SOL     OW 1906   4.936   6.046   2.518  0.1874 -0.4487 -0.2511
  622SOL    HW1 1907   4.931   6.062   2.423  0.8721  0.7183 -0.1175
  622SOL    HW2 1908   4.886   6.118   2.556 -0.2020 -0.9944  0.2837
  623SOL     OW 1909   4.410   2.815   2.603 -0.2908 -0.0558  0.0128
  623SOL    HW1 1910   4.502   2.830   2.578 -0.6242  0.6223 -0.8646
  623SOL    HW2 1911   4.405   2.841   2.695  0.1870  0.8560 -0.2057
  624SOL     OW 1912   2.030   2.793   2.235 -0.0897 -0.0364 -0.0456
  624SOL    HW1 1913   1.982   2.808   2.154  0.3376  1.3433 -0.0716
  624SOL    HW2 1914   2.109   2.746   2.208  1.2191  2.4491 -0.8333
  625SOL     OW 1915   5.967   3.725   2.905  0.1278 -0.2437  0.3270
  625SOL    HW1 1916   5.880   3.690   2.924 -0.9734  1.9297 -0.3765
  625SOL    HW2 1917   5.999   3.672   2.832 -1.0396 -0.4486 -0.0615
  626SOL     OW 1918   5.790   3.745   2.221 -0.1151  0.0752 -0.5153
  626SOL    HW1 1919   5.881   3.764   2.197  1.3590 -1.6917  2.8432
  626SOL    HW2 1920   5.777   3.655   2.192 -0.7499  0.2832 -0.8736
  627SOL     OW 1921   4.616   2.857   2.388  0.4215 -0.3510 -0.4821
  627SOL    HW1 1922   4.671   2.817   2.321 -0.5094 -1.2824 -0.7061
  627SOL    HW2 1923   4.527   2.834   2.364 -0.0225  0.4514  0.3252
  628SOL     OW 1924   5.814   2.767   2.497  0.0357 -0.2133 -0.8313
  628SOL    HW1 1925   5.858   2.736   2.576 -1.0428 -1.0550 -0.5391
  628SOL    HW2 1926   5.776   2.688   2.458 -0.7009  0.4106 -1.3948
  629SOL     OW 1927   1.877   3.743   1.702  0.0463  0.5956 -0.6271
  629SOL    HW1 1928   1.852   3.784   1.619  0.0458  0.6732 -0.5894
  629SOL    HW2 1929   1.879   3.816   1.764  1.3445  0.7512 -0.8361
  630SOL     OW 1930   3.274   4.378   0.344 -0.0384 -0.1598  0.4248
  630SOL    HW1 1931   3.220   4.439   0.395 -0.1820  1.1376 -1.2166
  630SOL    HW2 1932   3.233   4.376   0.258 -0.2249 -2.8696  0.4922
  631SOL     OW 1933   5.399   2.156   2.925  0.2280  0.4931 -0.7217
  631SOL    HW1 1934   5.403   2.214   3.001  1.5540  1.7566 -1.7052
  631SOL    HW2 1935   5.471   2.185   2.868 -0.5820 -0.5369 -2.3679
  632SOL     OW 1936   5.023   2.531   2.248 -0.1547 -0.4143  0.2680
  632SOL    HW1 1937   4.974   2.487   2.179 -2.0219 -0.0535  1.3010
  632SOL    HW2 1938   5.114   2.508   2.231 -0.4507  0.2040 -2.7025
  633SOL     OW 1939   4.264   2.604   2.787 -0.3711 -0.3570  0.0891
  633SOL    HW1 1940   4.277   2.592   2.882 -0.3845  1.6376  0.3800
  633SOL    HW2 1941   4.353   2.603   2.751 -0.3781 -1.3802  0.0535
  634SOL     OW 1942   5.214   2.252   1.931 -0.0556 -0.0091  0.3521
  634SOL    HW1 1943   5.254   2.212   2.008 -1.0932  1.0966  1.5115
  634SOL    HW2 1944   5.135   2.200   1.915 -0.3045  0.2975  0.5807
  635SOL     OW 1945   5.698   3.113   2.997 -0.1375 -0.3258 -0.3522
  635SOL    HW1 1946   5.724   3.197   2.959 -0.6825  0.3191  0.6463
  635SOL    HW2 1947   5.672   3.060   2.922 -0.5169  0.6637 -0.9376
  636SOL     OW 1948   5.363   6.221   2.856  0.2407  0.3727  0.4928
  636SOL    HW1 1949   5.344   6.310   2.887 -1.3663 -0.2199  1.3087
  636SOL    HW2 1950   5.434   6.233   2.792  0.2117  2.2069  0.7462
  637SOL     OW 1951   5.376   3.327   2.359 -0.0856 -0.5494 -0.2226
  637SOL    HW1 1952   5.395   3.377   2.280 -0.0992  0.1405  0.2078
  637SOL    HW2 1953   5.395   3.387   2.431 -0.7161 -0.9476  0.2886
  638SOL     OW 1954   4.813   3.441   2.785 -0.1253  0.0604 -0.4076
  638SOL    HW1 1955   4.778   3.492   2.712 -1.2239  2.5878  1.6925
  638SOL    HW2 1956   4.747   3.449   2.854  1.5898 -0.7532  1.4359
  639SOL     OW 1957   0.169   1.135  -0.024  0.6184 -0.2802  0.0345
  639SOL    HW1 1958   0.187   1.067   0.040  0.2282  0.9152  1.4597
  639SOL    HW2 1959   0.126   1.205   0.025  1.7452  1.3697 -1.1778
  640SOL     OW 1960   3.647   1.093   0.207  0.4313  0.3434 -0.5366
  640SOL    HW1 1961   3.589   1.053   0.142  2.3462 -1.3079 -1.3338
  640SOL    HW2 1962   3.688   1.019   0.251  1.6242  1.4591  0.2677
  641SOL     OW 1963   4.973   2.402   1.709 -0.0411 -0.7041 -0.4002
  641SOL    HW1 1964   4.888   2.379   1.673 -0.0649  2.2061 -2.6317
  641SOL    HW2 1965   4.955   2.426   1.800 -1.8029  0.5426 -1.0235
  642SOL     OW 1966   6.059   2.940   2.628  0.8064 -0.0771  0.3218
  642SOL    HW1 1967   6.061   2.861   2.680 -0.2017 -0.7671 -0.6275
  642SOL    HW2 1968   6.143   2.943   2.583  0.7296 -0.7821  0.1292
  643SOL     OW 1969   5.359   3.702   2.159 -0.0464  0.2535  0.1777
  643SOL    HW1 1970   5.378   3.734   2.071  0.6404 -1.2431 -0.2643
  643SOL    HW2 1971   5.398   3.614   2.161  1.9783  1.0904  2.7447
  644SOL     OW 1972   2.050   3.529   2.101  0.1557 -0.7892 -0.2943
  644SOL    HW1 1973   2.056   3.613   2.147 -0.8536 -0.2717 -1.0673
  644SOL    HW2 1974   1.959   3.503   2.112 -0.1256 -0.6384 -2.0034
  645SOL     OW 1975   4.607   3.419   2.400 -0.3277  0.3165  0.0284
  645SOL    HW1 1976   4.597   3.342   2.344 -0.9503 -1.1380  2.0364
  645SOL    HW2 1977   4.517   3.446   2.419 -0.1919 -0.1616  1.4996
  646SOL     OW 1978   5.766   2.230   2.087 -0.0559 -0.1902  0.1946
  646SOL    HW1 1979   5.776   2.148   2.038 -1.5774 -0.6311  0.5683
  646SOL    HW2 1980   5.724   2.290   2.025 -1.9147 -0.7255  0.8982
  647SOL     OW 1981   2.572   1.182   0.075  0.9254 -0.0755  0.3928
  647SOL    HW1 1982   2.527   1.240   0.013 -0.6088  0.1355  1.6429
  647SOL    HW2 1983   2.520   1.188   0.155  2.8131 -0.3824  1.7064
  648SOL     OW 1984   5.089   3.714   2.904  0.1106  0.1480  0.3030
  648SOL    HW1 1985   5.087   3.742   2.812  0.2355  0.4278  0.3871
  648SOL    HW2 1986   5.164   3.655   2.908 -1.5378 -2.1374 -0.4309
  649SOL     OW 1987   4.976   2.176   2.321 -0.3547  0.1757 -0.1667
  649SOL    HW1 1988   4.965   2.230   2.242 -0.7234 -2.5567 -2.1047
  649SOL    HW2 1989   5.066   2.144   2.315 -0.5536 -0.4753  0.2376
  650SOL     OW 1990   5.246   1.853   1.423  0.5630  0.6347  0.3459
  650SOL    HW1 1991   5.239   1.905   1.503 -3.1552  0.0407  0.5972
  650SOL    HW2 1992   5.201   1.904   1.357  0.2169 -0.5570 -0.3718
  651SOL     OW 1993   5.078   3.115   3.054  0.2069  0.1008  0.1232
  651SOL    HW1 1994   5.056   3.093   2.963 -0.2651 -4.3111  1.0902
  651SOL    HW2 1995   4.999   3.092   3.104  1.0596  0.7309  1.8488
  652SOL     OW 1996   4.036   0.615   0.140  1.0369 -0.1131  0.5148
  652SOL    HW1 1997   4.083   0.587   0.061 -0.3669 -1.9354  0.2746
  652SOL    HW2 1998   3.944   0.598   0.121  0.7743 -2.3402  3.1670
  653SOL     OW 1999   5.050   3.063   2.769  0.6885  0.0011 -0.0294
  653SOL    HW1 2000   5.037   2.999   2.700 -2.1231 -0.2019  0.5576
  653SOL    HW2 2001   5.057   3.147   2.723 -3.1593  0.1540 -0.6913
  654SOL     OW 2002   5.294   2.458   2.394  0.5437  0.5335 -0.2891
  654SOL    HW1 2003   5.289   2.393   2.324  1.0050  0.7255 -0.4985
  654SOL    HW2 2004   5.334   2.411   2.467 -1.6489 -0.2263  0.5022
  655SOL     OW 2005   4.527   1.516   2.179  0.3149 -0.0728  0.2832
  655SOL    HW1 2006   4.598   1.549   2.233  0.9360 -0.5170 -0.2509
  655SOL    HW2 2007   4.447   1.545   2.224  0.8013 -1.0867  1.8623
  656SOL     OW 2008   5.186   3.166   1.981 -0.6410  0.4862 -0.1757
  656SOL    HW1 2009   5.153   3.249   2.016  2.2701  0.9545  1.8608
  656SOL    HW2 2010   5.231   3.191   1.900 -1.8172  0.4613 -0.8578
  657SOL     OW 2011   4.789   1.879   1.798  0.0934 -0.1149  0.2896
  657SOL    HW1 2012   4.720   1.812   1.797 -0.0261  0.0078  0.2609
  657SOL    HW2 2013   4.760   1.942   1.864  1.0534 -0.9766  1.5857
  658SOL     OW 2014   5.240   2.169   2.391 -0.3247  0.3645  0.0352
  658SOL    HW1 2015   5.312   2.122   2.349  0.2935 -0.2996  1.7472
  658SOL    HW2 2016   5.276   2.200   2.473 -1.4710  1.6924  0.0722
  659SOL     OW 2017   2.896   0.725   0.309 -0.3615  0.3645  0.5031
  659SOL    HW1 2018   2.808   0.706   0.279 -0.0907  0.6270 -0.4875
  659SOL    HW2 2019   2.890   0.811   0.350  0.0922  2.1387 -2.8088
  660SOL     OW 2020   5.714   3.616   2.947 -0.3440 -0.1673 -0.1477
  660SOL    HW1 2021   5.641   3.583   3.000 -1.2604  0.2121 -1.1475
  660SOL    HW2 2022   5.675   3.636   2.862  0.7939  0.6688 -0.4963
  661SOL     OW 2023   5.210   2.456   2.815  0.3324 -0.0059 -0.1530
  661SOL    HW1 2024   5.260   2.538   2.819  0.1907  0.1613 -1.3922
  661SOL    HW2 2025   5.126   2.477   2.856  0.6891  0.1576  0.5061
  662SOL     OW 2026   5.625   3.611   2.692  0.6322  0.2995  0.8281
  662SOL    HW1 2027   5.670   3.672   2.634  0.3908 -1.3157 -1.1765
  662SOL    HW2 2028   5.546   3.586   2.644 -0.7356  0.5371  2.8347
  663SOL     OW 2029   5.487   2.662   1.640 -0.3175  0.2954  0.1434
  663SOL    HW1 2030   5.398   2.635   1.616 -0.6828  0.8725  0.8224
  663SOL    HW2 2031   5.541   2.631   1.567 -1.3987  2.2435 -1.6208
  664SOL     OW 2032   2.258   4.391   0.261 -0.1406 -0.3414  0.3415
  664SOL    HW1 2033   2.185   4.441   0.225 -1.4429 -2.1140  0.3938
  664SOL    HW2 2034   2.303   4.452   0.319 -0.5311  1.3073 -1.0062
  665SOL     OW 2035   2.997   3.823   0.237  0.0861  0.6025 -0.3763
  665SOL    HW1 2036   3.000   3.918   0.250 -0.5873  0.7373 -1.0940
  665SOL    HW2 2037   3.066   3.788   0.293 -0.6269  1.3940  1.0431
  666SOL     OW 2038   5.017   1.867   2.131  0.3975 -0.2181 -0.0059
  666SOL    HW1 2039   5.065   1.948   2.117  0.3672 -0.1880  0.0659
  666SOL    HW2 2040   5.081   1.809   2.173  0.4252 -0.2381 -0.0743
  667SOL     OW 2041   5.519   1.934   2.633 -0.2125  0.0545 -0.0492
  667SOL    HW1 2042   5.438   1.950   2.584  1.2069  0.0457 -2.5664
  667SOL    HW2 2043   5.583   1.912   2.566  1.8726 -0.0534  1.8788
  668SOL     OW 2044   3.347   1.084   0.097 -0.2699 -0.2477  0.0209
  668SOL    HW1 2045   3.254   1.090   0.078  0.0818  1.2433 -1.4994
  668SOL    HW2 2046   3.374   1.001   0.058 -1.1190 -1.1842  1.3595
  669SOL     OW 2047   5.636   2.703   3.052 -0.0805  0.1214 -0.9401
  669SOL    HW1 2048   5.666   2.613   3.049 -0.3844  0.0186 -0.9698
  669SOL    HW2 2049   5.581   2.707   3.130 -0.0946  0.2711 -0.9574
  670SOL     OW 2050   5.851   2.604   2.741  0.2589 -0.5519  0.1475
  670SOL    HW1 2051   5.945   2.614   2.756  0.5014 -2.0715 -0.1432
  670SOL    HW2 2052   5.838   2.509   2.733 -1.4850 -0.4703  1.3911
  671SOL     OW 2053   4.871   3.183   2.162  0.2881 -0.2674 -0.0820
  671SOL    HW1 2054   4.922   3.121   2.108  1.2325 -0.0895  0.5832
  671SOL    HW2 2055   4.875   3.265   2.113 -1.3156 -0.7937 -1.1770
  672SOL     OW 2056   6.035   3.395   2.491 -0.4028 -0.1267  0.4248
  672SOL    HW1 2057   5.974   3.346   2.436 -0.7743  0.7749  0.0183
  672SOL    HW2 2058   5.998   3.387   2.579 -0.4992 -0.5103  0.3542
  673SOL     OW 2059   1.321   2.614   1.854  0.4226 -0.0449 -0.1160
  673SOL    HW1 2060   1.255   2.633   1.788  0.3251 -2.1801 -0.6885
  673SOL    HW2 2061   1.273   2.572   1.925  0.8512  0.3565  0.4248
  674SOL     OW 2062   5.018   2.078   1.925 -0.0009  0.1258 -0.2797
  674SOL    HW1 2063   5.040   1.989   1.897 -0.2023  0.0682 -0.2593
  674SOL    HW2 2064   4.926   2.088   1.901  0.8001  1.4532 -3.2494
  675SOL     OW 2065   3.432   0.687   0.252  0.1327 -0.0151  0.2930
  675SOL    HW1 2066   3.495   0.746   0.293  1.4276 -0.0740 -1.4501
  675SOL    HW2 2067   3.352   0.739   0.245 -0.2566 -0.1307  3.0920
  676SOL     OW 2068   3.103   1.153   0.017 -0.2325 -0.3729  0.0298
  676SOL    HW1 2069   3.047   1.231   0.008 -0.5592 -0.5509  0.4505
  676SOL    HW2 2070   3.042   1.080   0.016  0.1603 -0.6978 -1.3424
  677SOL     OW 2071   3.776   0.852   0.305  0.3442 -0.2260 -0.8631
  677SOL    HW1 2072   3.853   0.823   0.353 -0.0224 -0.5903 -0.4854
  677SOL    HW2 2073   3.784   0.811   0.219  0.7484  0.0263 -0.9504
  678SOL     OW 2074   2.539   3.995   0.160  0.5084 -0.1949  0.3854
  678SOL    HW1 2075   2.486   4.051   0.217  2.3425  0.1514  1.8348
  678SOL    HW2 2076   2.503   4.010   0.072 -0.9029  1.0268  1.1193
  679SOL     OW 2077   5.439   2.832   2.188  0.0082  0.4610  0.5202
  679SOL    HW1 2078   5.358   2.856   2.143  0.5765  1.4200 -0.0188
  679SOL    HW2 2079   5.493   2.911   2.185  0.2931  0.3877  2.4039
  680SOL     OW 2080   5.044   2.141   2.755 -0.4222 -0.2200 -0.0750
  680SOL    HW1 2081   5.068   2.145   2.848 -1.3760  0.7741  0.1506
  680SOL    HW2 2082   4.995   2.222   2.739 -0.7765 -0.6480 -1.2999
  681SOL     OW 2083   3.658   0.309   0.226  0.1579  0.4666 -0.1105
  681SOL    HW1 2084   3.647   0.266   0.141  0.3327  2.2766 -1.1008
  681SOL    HW2 2085   3.570   0.339   0.249  0.2130  0.4897  0.0672
  682SOL     OW 2086   2.111   1.254   0.103 -0.3548  0.5261  0.1262
  682SOL    HW1 2087   2.088   1.168   0.067 -1.4723  1.2387 -0.9451
  682SOL    HW2 2088   2.147   1.302   0.028  1.4466  0.5939  0.9974
  683SOL     OW 2089   4.964   2.857   2.087 -0.2435  1.1562  0.4792
  683SOL    HW1 2090   5.056   2.884   2.083  1.0002 -1.7813  4.0709
  683SOL    HW2 2091   4.937   2.877   2.176 -2.4742  0.1439  0.0849
  684SOL     OW 2092   4.624   2.253   2.387 -0.2229 -0.3077  0.0304
  684SOL    HW1 2093   4.620   2.275   2.294 -1.2640 -0.9079 -0.0801
  684SOL    HW2 2094   4.668   2.328   2.427  0.0274  0.0651 -0.9067
  685SOL     OW 2095   5.625   3.172   2.425  0.2321 -0.2791  0.3178
  685SOL    HW1 2096   5.531   3.189   2.429  0.1395 -0.5161 -0.5672
  685SOL    HW2 2097   5.653   3.165   2.516 -0.6320 -0.3386  0.5794
  686SOL     OW 2098   3.833   1.319   0.195  0.0316  0.0810  0.1734
  686SOL    HW1 2099   3.895   1.283   0.132  0.2841 -0.3601  0.6643
  686SOL    HW2 2100   3.767   1.251   0.206 -0.1699  0.2725  0.1681
  687SOL     OW 2101   1.586   2.546   2.169 -0.4673  0.0531  0.4247
  687SOL    HW1 2102   1.629   2.599   2.236  0.2558  1.4589 -1.0785
  687SOL    HW2 2103   1.603   2.592   2.087 -0.2203 -2.2659 -0.9283
  688SOL     OW 2104   4.994   3.424   3.007 -0.7409 -0.2938  0.2847
  688SOL    HW1 2105   4.991   3.456   2.917  0.6968 -1.1413 -0.0885
  688SOL    HW2 2106   4.919   3.366   3.015  0.2820 -1.8644 -1.0378
  689SOL     OW 2107   5.289   2.253   2.658  0.7662 -0.4103  0.6981
  689SOL    HW1 2108   5.235   2.191   2.706  2.3604 -1.4910  1.1604
  689SOL    HW2 2109   5.266   2.338   2.695 -0.4994 -0.8506  0.9707
  690SOL     OW 2110   5.710   2.835   2.828 -0.1690 -0.6166  0.2024
  690SOL    HW1 2111   5.667   2.819   2.912  0.3377 -0.7875  0.4300
  690SOL    HW2 2112   5.762   2.756   2.812 -0.3597 -0.6411 -0.3353
  691SOL     OW 2113   5.729   2.891   2.119  0.2780  0.3453 -0.1393
  691SOL    HW1 2114   5.737   2.903   2.213  0.0842  0.6844 -0.1609
  691SOL    HW2 2115   5.654   2.946   2.095  0.3373  0.2737 -0.4915
  692SOL     OW 2116   5.049   5.728   2.897  0.5347 -0.4720 -0.1893
  692SOL    HW1 2117   5.093   5.799   2.943 -0.1357 -0.5702  0.6421
  692SOL    HW2 2118   4.974   5.769   2.854  0.0305 -0.6883  0.4579
  693SOL     OW 2119   2.676   0.917   0.092 -0.0793 -0.1858  0.3570
  693SOL    HW1 2120   2.606   0.901   0.156  0.8271  1.0891  1.7390
  693SOL    HW2 2121   2.680   1.012   0.085  1.2735 -0.2497  0.0327
  694SOL     OW 2122   5.505   2.370   2.553 -0.5966 -0.3501 -0.4549
  694SOL    HW1 2123   5.465   2.312   2.618  3.9949 -2.7371  0.7041
  694SOL    HW2 2124   5.550   2.437   2.605 -1.3197  0.9921 -1.5178
  695SOL     OW 2125   5.332   5.951   2.900  0.6179 -0.2337 -0.5356
  695SOL    HW1 2126   5.340   6.046   2.906 -1.8268  0.0030 -0.3064
  695SOL    HW2 2127   5.292   5.924   2.983  1.8820 -1.5686 -0.3168
  696SOL     OW 2128   1.537   2.430   1.756  0.2328  0.2997 -0.1602
  696SOL    HW1 2129   1.483   2.508   1.766  0.3013  0.6980 -2.5041
  696SOL    HW2 2130   1.625   2.463   1.740  0.6237 -0.3078  0.6751
  697SOL     OW 2131   5.020   2.544   2.529 -0.7479  0.1319  0.4235
  697SOL    HW1 2132   5.018   2.557   2.434 -0.1524 -1.6806  0.1308
  697SOL    HW2 2133   5.086   2.476   2.543 -1.1339  0.0571  2.1001
  698SOL     OW 2134   1.838   2.175   1.624 -0.0978 -0.0353  0.3799
  698SOL    HW1 2135   1.825   2.085   1.594 -0.0320 -0.1766  0.7635
  698SOL    HW2 2136   1.760   2.222   1.593 -0.8694 -0.5628  1.4396
  699SOL     OW 2137   1.897   2.744   1.989  0.0633 -0.0050  0.1278
  699SOL    HW1 2138   1.805   2.771   1.982  0.1084  0.5284  1.3627
  699SOL    HW2 2139   1.942   2.798   1.924 -0.4628 -0.1604 -0.3836
  700SOL     OW 2140   5.344   2.686   2.781  0.5603  0.3031  0.2906
  700SOL    HW1 2141   5.328   2.688   2.687  1.2929 -0.1350  0.1457
  700SOL    HW2 2142   5.437   2.664   2.789  0.8179  1.5787  1.0982
  701SOL     OW 2143   4.855   2.375   2.766  0.6365 -0.6809  0.1092
  701SOL    HW1 2144   4.891   2.443   2.823  1.1892 -1.4214  0.6705
  701SOL    HW2 2145   4.853   2.415   2.679  1.1665 -0.0238  0.3902
  702SOL     OW 2146   4.192   2.636   2.452  0.1728  0.0070  0.2949
  702SOL    HW1 2147   4.235   2.712   2.492  2.6928 -1.5025  0.7431
  702SOL    HW2 2148   4.260   2.598   2.396 -0.8497 -2.1429  0.4310
  703SOL     OW 2149   3.434   4.340   0.101 -0.3983 -0.2370  0.3317
  703SOL    HW1 2150   3.420   4.406   0.168  0.0419  1.2925 -1.0256
  703SOL    HW2 2151   3.372   4.270   0.122 -1.0645  0.7183  1.6437
  704SOL     OW 2152   4.337   2.901   2.324 -0.0442 -0.2666 -0.2612
  704SOL    HW1 2153   4.258   2.918   2.273  0.3792  0.8316 -0.5921
  704SOL    HW2 2154   4.310   2.907   2.415 -0.7341 -1.8765 -0.3262
  705SOL     OW 2155   4.327   3.549   2.700 -0.0454  0.1858 -0.5269
  705SOL    HW1 2156   4.405   3.542   2.755  0.5495 -1.8926 -1.5060
  705SOL    HW2 2157   4.271   3.612   2.745  0.9682 -0.4099  1.7262
  706SOL     OW 2158   4.764   3.729   2.928  0.3329 -0.3694 -0.1768
  706SOL    HW1 2159   4.706   3.653   2.930  0.3841 -0.4370 -0.8938
  706SOL    HW2 2160   4.852   3.693   2.936  0.2530 -0.1736  2.2908
  707SOL     OW 2161   3.232   0.416   0.103  0.1238  0.3232  0.2752
  707SOL    HW1 2162   3.197   0.358   0.035 -2.4125 -2.0993  3.3184
  707SOL    HW2 2163   3.171   0.491   0.103 -1.4393 -0.8776  1.4025
  708SOL     OW 2164   4.490   2.453   2.731  0.1035 -0.0134  0.4867
  708SOL    HW1 2165   4.433   2.377   2.739 -1.2484  1.0547  1.4701
  708SOL    HW2 2166   4.532   2.442   2.646  0.4912 -2.1963  0.9092
  709SOL     OW 2167   5.234   2.489   2.053 -0.3098  0.4097  0.3357
  709SOL    HW1 2168   5.326   2.513   2.069  0.3384 -1.7846  0.1617
  709SOL    HW2 2169   5.239   2.402   2.014 -2.5158  0.0517  0.7682
  710SOL     OW 2170   6.008   2.428   2.914 -0.3505  1.0370 -0.1059
  710SOL    HW1 2171   6.067   2.420   2.989 -2.5683 -0.2047  1.6218
  710SOL    HW2 2172   6.006   2.341   2.875  0.7884  1.6739 -1.6845
  711SOL     OW 2173   5.583   2.526   2.782 -0.2808  0.5080 -0.0961
  711SOL    HW1 2174   5.566   2.461   2.850  1.2999  1.4101  1.2349
  711SOL    HW2 2175   5.668   2.563   2.806 -0.2787  1.7409 -1.8796
  712SOL     OW 2176   3.243   1.831   0.453  0.6531  0.2722 -0.2661
  712SOL    HW1 2177   3.158   1.813   0.413  0.0627  1.6198  0.3206
  712SOL    HW2 2178   3.234   1.919   0.489  2.0396  0.1182  0.5124
  713SOL     OW 2179   4.908   2.339   2.082 -0.1290  0.9141  0.3663
  713SOL    HW1 2180   4.849   2.273   2.046  0.8409 -0.1610  0.6988
  713SOL    HW2 2181   4.924   2.399   2.009  0.3294 -0.1877 -0.4635
  714SOL     OW 2182   4.741   2.484   2.457 -0.2912 -0.1248 -0.2060
  714SOL    HW1 2183   4.827   2.475   2.498 -0.4861 -0.8204  0.0691
  714SOL    HW2 2184   4.758   2.535   2.378  0.0881  1.2570  0.7228
  715SOL     OW 2185   3.421   0.429   0.311  0.5321  0.1434  0.1223
  715SOL    HW1 2186   3.339   0.400   0.272 -0.8782  0.5495  2.5938
  715SOL    HW2 2187   3.422   0.524   0.297 -0.1410  0.3389  1.2695
  716SOL     OW 2188   1.944   2.871   2.490  0.0885  0.0319 -0.0252
  716SOL    HW1 2189   1.976   2.849   2.402  1.5350 -0.9560  0.7184
  716SOL    HW2 2190   2.023   2.878   2.543 -0.8606 -1.1942  1.6132
  717SOL     OW 2191   4.321   1.431   0.296 -0.6103  0.1830 -0.2101
  717SOL    HW1 2192   4.356   1.419   0.208 -1.5350 -1.9806 -0.3364
  717SOL    HW2 2193   4.272   1.513   0.291 -0.1158  0.4273 -1.5091
  718SOL     OW 2194   3.343   1.373   0.055  0.1257  0.4241 -0.1874
  718SOL    HW1 2195   3.315   1.281   0.052 -1.4880  0.9144 -1.6519
  718SOL    HW2 2196   3.339   1.396   0.147  0.6065 -0.9746  0.2186
  719SOL     OW 2197   4.891   2.835   3.067 -0.5112  0.4538  0.2001
  719SOL    HW1 2198   4.893   2.928   3.091  0.2939  0.3383  0.6186
  719SOL    HW2 2199   4.978   2.818   3.031 -1.1507  0.2224 -1.3164
  720SOL     OW 2200   1.602   1.936   2.158 -0.5310 -0.3040 -0.5380
  720SOL    HW1 2201   1.638   2.000   2.096 -4.3047  1.9174 -0.7703
  720SOL    HW2 2202   1.592   1.986   2.240 -3.1851 -0.6140 -0.6029
  721SOL     OW 2203   5.692   3.474   2.074  0.1850 -0.2351 -0.0629
  721SOL    HW1 2204   5.596   3.476   2.080  0.1742 -0.0883 -0.2837
  721SOL    HW2 2205   5.710   3.468   1.980  0.3673 -1.8662  0.0535
  722SOL     OW 2206   5.777   3.069   2.658 -0.0499 -0.1990  0.1032
  722SOL    HW1 2207   5.866   3.055   2.625  1.2631  1.2011  2.7273
  722SOL    HW2 2208   5.752   2.984   2.695  0.7241 -0.2694  0.4753
  723SOL     OW 2209   2.449   0.839   0.265 -0.1664  0.2366 -0.2193
  723SOL    HW1 2210   2.423   0.851   0.356  0.2035 -1.0112  0.0761
  723SOL    HW2 2211   2.511   0.766   0.268 -0.7447 -0.3400 -1.5656
  724SOL     OW 2212   5.095   3.643   2.209  0.5273 -0.4187  0.1872
  724SOL    HW1 2213   5.168   3.704   2.196  0.4190 -0.2741  0.2502
  724SOL    HW2 2214   5.019   3.700   2.220  0.5416 -0.5454  0.9806
  725SOL     OW 2215   3.834   1.577   0.133 -0.0162  0.1481 -0.0092
  725SOL    HW1 2216   3.842   1.492   0.177  1.7408  0.0114 -0.5217
  725SOL    HW2 2217   3.831   1.555   0.039  2.3951  0.6820 -0.2751
  726SOL     OW 2218   2.000   2.137   2.595  0.0389  0.6641 -0.0650
  726SOL    HW1 2219   2.059   2.180   2.657  0.5676  1.4779 -1.1027
  726SOL    HW2 2220   2.025   2.044   2.598  2.6119  1.2042 -1.7015
  727SOL     OW 2221   4.676   5.974   2.368  0.2881  0.0580 -0.5989
  727SOL    HW1 2222   4.692   6.067   2.380  1.9058 -0.0705 -1.3976
  727SOL    HW2 2223   4.651   5.942   2.455  0.3623  1.1143 -0.1767
  728SOL     OW 2224   5.374   3.405   2.088  0.0983 -0.2381 -0.3859
  728SOL    HW1 2225   5.408   3.361   2.010  0.0828  0.0990 -0.5843
  728SOL    HW2 2226   5.279   3.403   2.077  0.0529 -1.0281  0.0850
  729SOL     OW 2227   3.106   0.163   0.009 -0.1602 -0.0772  0.1971
  729SOL    HW1 2228   3.030   0.111   0.036 -0.3979 -0.4312 -1.0834
  729SOL    HW2 2229   3.090   0.183  -0.083  2.2601 -1.9755 -0.7452
  730SOL     OW 2230   5.558   3.077   2.172  0.3335  0.4241 -0.0059
  730SOL    HW1 2231   5.482   3.135   2.174 -0.4474 -0.5271  3.2602
  730SOL    HW2 2232   5.609   3.101   2.249  1.2774 -1.5374  0.0415
  731SOL     OW 2233   1.664   3.606   1.923 -0.1784 -0.3967 -0.3301
  731SOL    HW1 2234   1.736   3.655   1.961  0.6672 -0.9064 -1.2393
  731SOL    HW2 2235   1.641   3.541   1.989 -2.8448  2.5156  1.9165
  732SOL     OW 2236   2.632   0.591   0.254 -0.7432 -0.2964  0.3318
  732SOL    HW1 2237   2.701   0.527   0.270 -0.4069 -0.5221 -1.7047
  732SOL    HW2 2238   2.594   0.564   0.170 -0.7691  1.9805 -0.4529
  733SOL     OW 2239   3.969   0.752   0.477  0.0091  0.1292  0.7813
  733SOL    HW1 2240   4.048   0.763   0.529  1.8118  1.1269 -1.9219
  733SOL    HW2 2241   3.940   0.663   0.495  0.6357  0.3554  3.2156
  734SOL     OW 2242   5.363   2.712   2.514 -0.1088 -0.5555 -0.8748
  734SOL    HW1 2243   5.314   2.644   2.469  1.2651 -0.9447 -1.8731
  734SOL    HW2 2244   5.436   2.732   2.454 -0.7170  2.1365 -0.8551
  735SOL     OW 2245   5.270   1.901   2.485  0.0616  0.3177 -0.2757
  735SOL    HW1 2246   5.250   1.823   2.538  1.2311 -0.9483 -1.5875
  735SOL    HW2 2247   5.186   1.946   2.475 -0.3228  0.1759  1.9440
  736SOL     OW 2248   4.565   3.212   2.208  0.1776  0.0526  0.6273
  736SOL    HW1 2249   4.660   3.212   2.220  0.3050 -0.1372 -0.3245
  736SOL    HW2 2250   4.531   3.178   2.290  0.9943 -1.0336  0.5407
  737SOL     OW 2251   3.869   4.295   0.251  0.0827  0.1872 -0.0247
  737SOL    HW1 2252   3.934   4.358   0.221  0.8160 -0.9176 -0.8476
  737SOL    HW2 2253   3.819   4.273   0.173  0.8304 -1.3761 -0.0933
  738SOL     OW 2254   4.491   3.011   2.045  0.0800 -0.3726  0.0846
  738SOL    HW1 2255   4.470   2.968   2.128 -2.2153 -0.1231 -0.2937
  738SOL    HW2 2256   4.506   3.102   2.068  0.3362 -0.4722  0.3217
  739SOL     OW 2257   3.116   0.288   0.321  0.6275  0.2755  0.3496
  739SOL    HW1 2258   3.029   0.284   0.282  0.7463 -1.7211  0.1725
  739SOL    HW2 2259   3.168   0.341   0.261 -0.3541  1.1705  0.2668
  740SOL     OW 2260   4.347   2.325   1.499 -0.3557  0.1099  0.1634
  740SOL    HW1 2261   4.298   2.279   1.567 -0.8415 -0.1512 -0.3568
  740SOL    HW2 2262   4.331   2.418   1.517  1.0086  0.1137  1.4943
  741SOL     OW 2263   4.036   0.185   0.141 -0.4801  0.0836  0.1450
  741SOL    HW1 2264   4.031   0.235   0.223 -0.3112  0.6388 -0.1765
  741SOL    HW2 2265   4.096   0.235   0.086  0.8682 -1.2640  0.3430
  742SOL     OW 2266   4.529   2.002   2.217  0.0241 -0.0454 -0.0500
  742SOL    HW1 2267   4.476   2.078   2.241  0.0817  0.0537 -0.2368
  742SOL    HW2 2268   4.488   1.969   2.137 -1.8352 -1.9738  1.5659
  743SOL     OW 2269   5.841   3.306   2.282 -0.0620  0.3263 -0.3045
  743SOL    HW1 2270   5.774   3.262   2.333  0.6639 -1.4824 -0.8352
  743SOL    HW2 2271   5.792   3.354   2.215 -1.0020  2.4387  1.7454
  744SOL     OW 2272   5.057   2.170   3.048  0.7529 -0.0645  0.1080
  744SOL    HW1 2273   5.086   2.081   3.067  1.3986  0.2812  0.7576
  744SOL    HW2 2274   4.963   2.169   3.068  1.0940 -0.1305  1.8683
  745SOL     OW 2275   6.147   3.222   2.850 -0.8063 -0.4034  0.2575
  745SOL    HW1 2276   6.089   3.244   2.777 -0.9976  0.0391  0.5354
  745SOL    HW2 2277   6.222   3.179   2.809 -0.5777  0.4858 -0.2826
  746SOL     OW 2278   4.131   0.863   0.176 -0.3879 -0.2697  0.1705
  746SOL    HW1 2279   4.086   0.781   0.157  1.2709 -1.0773 -0.4451
  746SOL    HW2 2280   4.145   0.862   0.271  0.3327 -1.1049  0.0705
  747SOL     OW 2281   5.485   2.568   2.144  0.1493  0.1077  0.4144
  747SOL    HW1 2282   5.552   2.551   2.211 -0.6437 -0.1905  1.1592
  747SOL    HW2 2283   5.463   2.660   2.155  1.5869  0.6455 -0.9340
  748SOL     OW 2284   4.753   2.651   2.220 -0.2957 -0.4397 -0.0040
  748SOL    HW1 2285   4.843   2.639   2.190 -0.2620  1.6950 -0.9132
  748SOL    HW2 2286   4.699   2.618   2.148 -0.2463 -0.7630  0.1053
  749SOL     OW 2287   3.909   0.325   0.329  0.2959  0.0458 -0.0304
  749SOL    HW1 2288   3.830   0.337   0.275  0.7570  1.2881 -0.4672
  749SOL    HW2 2289   3.904   0.395   0.394  2.0590  1.4772 -1.3601
  750SOL     OW 2290   5.160   3.495   2.438  0.2383 -0.3762  0.2686
  750SOL    HW1 2291   5.115   3.553   2.377 -2.2249  0.3992  2.6125
  750SOL    HW2 2292   5.175   3.415   2.389 -0.0460  0.7963 -1.8278
  751SOL     OW 2293   3.178   0.808   0.282 -0.1354  0.0184  0.6697
  751SOL    HW1 2294   3.144   0.896   0.265 -0.1299 -0.0447  0.3289
  751SOL    HW2 2295   3.101   0.752   0.282  0.0586 -0.2916 -1.1847
  752SOL     OW 2296   5.231   2.910   2.038  0.4269 -0.0343  0.3497
  752SOL    HW1 2297   5.269   2.879   1.956  1.2280 -0.4565  0.8646
  752SOL    HW2 2298   5.222   3.005   2.026  1.4538  0.0425  0.1286
  753SOL     OW 2299   2.038   3.099   2.744  0.4011  0.2113 -0.5289
  753SOL    HW1 2300   2.070   3.031   2.684  0.3014  0.4288 -0.8348
  753SOL    HW2 2301   2.061   3.068   2.831  0.0961 -0.3567 -0.6450
  754SOL     OW 2302   4.530   3.133   2.460  0.1343  0.6148  0.3320
  754SOL    HW1 2303   4.538   3.043   2.428 -0.5548  0.6537  0.0110
  754SOL    HW2 2304   4.614   3.153   2.499  0.0962 -0.3776  0.9421
  755SOL     OW 2305   6.050   6.293   2.943  0.0985 -0.1450 -0.5946
  755SOL    HW1 2306   5.959   6.272   2.925 -1.1430  1.8859  2.5061
  755SOL    HW2 2307   6.084   6.214   2.986 -0.5262 -0.5196 -0.7745
  756SOL     OW 2308   4.768   1.906   2.342  0.0721 -0.6781  0.0938
  756SOL    HW1 2309   4.698   1.955   2.300 -1.2871 -1.3034  1.5460
  756SOL    HW2 2310   4.827   1.973   2.378 -0.2195 -0.1479 -0.4075
  757SOL     OW 2311   2.284   3.479   2.823 -0.0475  0.6028 -0.3406
  757SOL    HW1 2312   2.296   3.393   2.785  1.3752  0.6953 -0.1354
  757SOL    HW2 2313   2.372   3.514   2.833 -0.6379  2.9015 -2.2810
  758SOL     OW 2314   5.021   5.965   3.045  0.2913 -0.1191  0.0169
  758SOL    HW1 2315   5.058   5.950   3.132  1.7132 -0.0931 -0.5555
  758SOL    HW2 2316   4.927   5.953   3.056  0.1721  2.0437  2.0332
  759SOL     OW 2317   5.347   3.603   2.892  0.2671 -0.4268  0.0519
  759SOL    HW1 2318   5.410   3.656   2.843  0.9736 -2.0343 -0.8899
  759SOL    HW2 2319   5.394   3.576   2.971  0.4315 -0.7991 -0.1663
  760SOL     OW 2320   5.759   2.455   3.034 -0.0707  0.0920 -0.3439
  760SOL    HW1 2321   5.838   2.440   2.982  1.0396  2.0523  0.6807
  760SOL    HW2 2322   5.710   2.373   3.026  1.5846 -0.8332 -1.7972
  761SOL     OW 2323   5.006   2.000   2.530 -0.1889 -0.0492  0.1771
  761SOL    HW1 2324   4.967   2.072   2.479 -2.2246 -0.7317  0.6934
  761SOL    HW2 2325   5.020   2.037   2.617  1.5712  0.5558 -0.3012
  762SOL     OW 2326   5.062   2.871   2.568  0.3049 -0.6902 -0.9227
  762SOL    HW1 2327   5.030   2.899   2.482 -0.8386 -2.8299 -1.2676
  762SOL    HW2 2328   5.082   2.778   2.556 -1.7790 -1.5762  1.6002
  763SOL     OW 2329   2.791   1.201   0.397 -0.5020  0.2816  0.1046
  763SOL    HW1 2330   2.813   1.230   0.308  0.7346 -1.8204 -0.3440
  763SOL    HW2 2331   2.702   1.165   0.390 -0.2721 -0.2065 -0.3857
  764SOL     OW 2332   1.784   1.917   1.505  0.3115 -0.1322  0.6208
  764SOL    HW1 2333   1.692   1.891   1.500  0.0474  0.9510 -0.7648
  764SOL    HW2 2334   1.819   1.867   1.579 -0.9388 -1.8881  0.0842
  765SOL     OW 2335   5.673   2.512   2.364  0.3030  0.2718 -0.2316
  765SOL    HW1 2336   5.614   2.462   2.421  1.9255 -0.1622  1.1652
  765SOL    HW2 2337   5.744   2.450   2.343  1.5651  1.5023  0.2492
  766SOL     OW 2338   5.849   2.321   2.645 -0.0427  0.2414  0.0222
  766SOL    HW1 2339   5.934   2.285   2.669 -0.3973 -0.6837 -0.0668
  766SOL    HW2 2340   5.823   2.272   2.567  0.1149  1.7170 -1.0207
  767SOL     OW 2341   4.984   2.549   1.944  0.1229 -0.0948  0.5414
  767SOL    HW1 2342   5.075   2.549   1.974  0.2099  0.9391  0.3165
  767SOL    HW2 2343   4.958   2.641   1.946 -0.4602 -0.2059 -0.7503
  768SOL     OW 2344   5.410   3.764   1.879 -0.0787 -0.1430  0.4725
  768SOL    HW1 2345   5.367   3.742   1.797  0.7981 -1.5588  0.3527
  768SOL    HW2 2346   5.485   3.818   1.854  0.4287 -0.9141  0.2614
  769SOL     OW 2347   4.490   3.869   0.426 -0.0213  0.2583 -0.4615
  769SOL    HW1 2348   4.549   3.817   0.479  1.3891  0.5079 -1.7172
  769SOL    HW2 2349   4.406   3.823   0.430  0.4141 -0.4417  0.8467
  770SOL     OW 2350   4.565   4.118   0.548  0.0538  0.2366  0.0754
  770SOL    HW1 2351   4.534   4.040   0.503  0.8598  0.3648 -0.7358
  770SOL    HW2 2352   4.645   4.090   0.593 -1.8222 -0.4410  3.2768
  771SOL     OW 2353   4.074   2.161   2.821 -0.1068  1.0656  0.0103
  771SOL    HW1 2354   4.059   2.067   2.833  2.0842  0.5017 -1.0582
  771SOL    HW2 2355   4.025   2.203   2.891  1.9366 -1.1184  2.9605
  772SOL     OW 2356   4.664   3.913   1.509  0.0957  0.6663 -0.1820
  772SOL    HW1 2357   4.687   3.925   1.417  0.5925 -0.1287 -0.1678
  772SOL    HW2 2358   4.596   3.979   1.526 -0.8722  0.0244 -1.4433
  773SOL     OW 2359   1.875   4.127   1.274  0.6529  0.4798  0.4140
  773SOL    HW1 2360   1.950   4.135   1.332  1.2594 -0.1852 -0.2590
  773SOL    HW2 2361   1.842   4.217   1.266  0.7505  0.6243  1.5112
  774SOL     OW 2362   4.721   3.851   0.874  0.5180  0.3718  0.3418
  774SOL    HW1 2363   4.640   3.824   0.918 -1.0837  1.6899 -1.6104
  774SOL    HW2 2364   4.710   3.945   0.860  1.7496  0.3140 -1.2668
  775SOL     OW 2365   1.259   3.836   0.548  0.0472 -0.2339  0.5093
  775SOL    HW1 2366   1.169   3.815   0.571 -0.0662  2.1789  2.5929
  775SOL    HW2 2367   1.253   3.877   0.462 -0.4955 -2.1051 -0.4081
  776SOL     OW 2368   4.724   3.676   1.622 -0.8114 -0.0366  0.3584
  776SOL    HW1 2369   4.663   3.750   1.628 -0.4182  0.2673  0.6498
  776SOL    HW2 2370   4.774   3.692   1.542 -0.3272  0.3235  0.7297
  777SOL     OW 2371   1.153   3.560   1.013 -0.3993 -0.0507  0.0772
  777SOL    HW1 2372   1.118   3.471   1.009  0.6406 -0.8820  4.1171
  777SOL    HW2 2373   1.091   3.607   1.068  0.4167  0.9049  0.2094
  778SOL     OW 2374   1.467   4.094   1.620  0.3188 -0.3856 -0.4232
  778SOL    HW1 2375   1.429   4.158   1.680  2.6836  2.5452 -1.8130
  778SOL    HW2 2376   1.557   4.083   1.650  0.4826 -1.6744 -1.2960
  779SOL     OW 2377   5.347   3.768   1.478  0.7442  0.0230  0.1088
  779SOL    HW1 2378   5.270   3.823   1.464  0.9075  0.1875 -0.1557
  779SOL    HW2 2379   5.319   3.705   1.545  0.6066  0.5154  0.5178
  780SOL     OW 2380   4.330   4.117   0.730  0.3446 -0.5703 -0.5153
  780SOL    HW1 2381   4.408   4.114   0.675  0.2138  2.2382 -1.0261
  780SOL    HW2 2382   4.277   4.187   0.692 -0.4949  0.3899  2.2135
  781SOL     OW 2383   1.012   4.043   0.283 -0.1097 -0.2778  0.8384
  781SOL    HW1 2384   0.943   3.981   0.308  0.4306 -0.5042  1.8450
  781SOL    HW2 2385   0.975   4.129   0.302  0.0507 -0.4194  1.8988
  782SOL     OW 2386   2.034   4.819   1.533  0.4421 -0.3316 -0.1451
  782SOL    HW1 2387   2.013   4.792   1.622 -0.3481  3.4585  0.9648
  782SOL    HW2 2388   2.130   4.815   1.529  0.5561  0.4831  1.2692
  783SOL     OW 2389   1.027   3.781   0.662 -0.0209  0.2954  0.1336
  783SOL    HW1 2390   1.090   3.750   0.728 -1.0996 -0.2881  0.9339
  783SOL    HW2 2391   0.960   3.828   0.713  0.1690  1.6293 -0.7821
  784SOL     OW 2392   1.520   4.239   0.570  0.2059  0.3531 -0.6505
  784SOL    HW1 2393   1.437   4.214   0.530  0.2762 -2.7229  0.7833
  784SOL    HW2 2394   1.497   4.306   0.635 -1.0878 -0.0666 -0.6567
  785SOL     OW 2395   4.317   3.844   1.479 -0.0441  0.0012  0.0834
  785SOL    HW1 2396   4.367   3.913   1.522 -1.3263  1.0246 -0.0080
  785SOL    HW2 2397   4.362   3.763   1.504  0.7909  0.7641  1.1692
  786SOL     OW 2398   1.472   3.336  -0.036 -0.6355 -0.2575 -0.8380
  786SOL    HW1 2399   1.405   3.302  -0.095  0.4896 -1.0112 -1.7383
  786SOL    HW2 2400   1.430   3.341   0.049 -1.2973 -2.5683 -0.9706
  787SOL     OW 2401   1.940   3.936   1.923  0.4036 -0.3915 -0.4130
  787SOL    HW1 2402   2.034   3.949   1.918  0.5142 -1.0298 -0.0210
  787SOL    HW2 2403   1.927   3.880   2.000 -0.2549 -0.6864 -0.7292
  788SOL     OW 2404   0.132   3.187   0.075 -0.1209 -0.2134  0.3315
  788SOL    HW1 2405   0.067   3.217   0.139 -0.0621 -0.9908  0.7754
  788SOL    HW2 2406   0.216   3.208   0.114 -0.0713 -1.2294  0.8078
  789SOL     OW 2407   5.553   4.446   1.901  0.4392  0.0295 -0.4897
  789SOL    HW1 2408   5.505   4.518   1.860  0.5400  0.5198  0.2332
  789SOL    HW2 2409   5.506   4.367   1.873 -1.1182  0.5228  0.6287
  790SOL     OW 2410   1.411   4.139   1.033 -0.1221 -0.0838 -0.9200
  790SOL    HW1 2411   1.386   4.049   1.010 -2.6123  0.2636  0.1357
  790SOL    HW2 2412   1.407   4.141   1.128  2.0498  0.6453 -0.7843
  791SOL     OW 2413   0.888   3.773   0.424  0.0179  0.6285 -0.2524
  791SOL    HW1 2414   0.928   3.752   0.509  0.1449  1.5357 -0.0786
  791SOL    HW2 2415   0.921   3.705   0.365 -1.9592 -1.5178  0.8991
  792SOL     OW 2416   0.371   3.655   0.068 -0.6398 -0.1075 -0.1351
  792SOL    HW1 2417   0.311   3.680  -0.002 -0.6403  0.5697  0.0949
  792SOL    HW2 2418   0.366   3.560   0.071 -1.4345 -0.0845 -0.3561
  793SOL     OW 2419   0.923   4.140   0.618 -0.7587  1.1038  0.1217
  793SOL    HW1 2420   0.857   4.131   0.549  1.3211  0.7051 -1.9053
  793SOL    HW2 2421   0.895   4.079   0.686 -1.3487 -0.6353 -1.6069
  794SOL     OW 2422   4.633   4.322   1.458  0.2350  0.0431  0.8615
  794SOL    HW1 2423   4.678   4.272   1.526 -0.9598 -0.5531  1.2290
  794SOL    HW2 2424   4.552   4.351   1.499 -0.7459 -0.7628 -0.4685
  795SOL     OW 2425   0.837   3.485   0.979  0.1121 -0.3076  0.4090
  795SOL    HW1 2426   0.845   3.463   1.072  1.3381  0.1439  0.4280
  795SOL    HW2 2427   0.744   3.503   0.966  0.0466  0.3861  1.7279
  796SOL     OW 2428   1.178   3.381   0.525 -0.3038 -0.4076 -0.0545
  796SOL    HW1 2429   1.088   3.382   0.558  0.2960  1.2384  1.7309
  796SOL    HW2 2430   1.179   3.449   0.458  0.2178  1.6492  1.9350
  797SOL     OW 2431   1.666   4.091   0.844  0.3919 -0.1617  0.1806
  797SOL    HW1 2432   1.751   4.133   0.857  0.2691 -0.2971  1.5518
  797SOL    HW2 2433   1.623   4.096   0.930 -0.1076 -1.9893  0.0741
  798SOL     OW 2434   0.646   3.882   0.183 -0.3273  0.2130 -0.0985
  798SOL    HW1 2435   0.552   3.883   0.164 -0.6309 -1.7818  1.0393
  798SOL    HW2 2436   0.651   3.902   0.277  0.6271  2.7875 -0.5974
  799SOL     OW 2437   4.944   3.775   1.429 -0.2690  0.4809 -0.4390
  799SOL    HW1 2438   4.950   3.849   1.369  0.2854  0.7049 -0.1184
  799SOL    HW2 2439   4.969   3.699   1.377  3.5085  1.0746  0.2589
  800SOL     OW 2440   1.858   4.429   1.196  0.4355 -0.0986  0.2547
  800SOL    HW1 2441   1.801   4.495   1.158  0.4682  0.3997  1.0423
  800SOL    HW2 2442   1.926   4.479   1.242  0.6595 -0.6738  0.5661
  801SOL     OW 2443   5.008   4.002   1.091 -0.2372  0.1816 -0.0567
  801SOL    HW1 2444   5.037   4.055   1.166 -2.1544  1.0774  0.0975
  801SOL    HW2 2445   4.931   3.956   1.123 -1.1145  0.6115 -1.4821
  802SOL     OW 2446   1.291   3.924   1.772  0.1208 -0.4909  0.1543
  802SOL    HW1 2447   1.325   3.951   1.687 -0.6544 -1.2328 -0.4128
  802SOL    HW2 2448   1.367   3.892   1.821  0.5124 -0.4072 -0.4045
  803SOL     OW 2449   4.810   3.426   1.813  0.0849  0.4828  0.3280
  803SOL    HW1 2450   4.732   3.381   1.844 -0.4887  1.1147 -0.1808
  803SOL    HW2 2451   4.777   3.500   1.762  0.9893  1.5085  1.1550
  804SOL     OW 2452   4.572   3.512   1.013 -0.1619 -0.2428 -0.6169
  804SOL    HW1 2453   4.507   3.579   1.033  3.0535  2.3943  2.1621
  804SOL    HW2 2454   4.582   3.464   1.095  0.3646 -1.6502 -1.4650
  805SOL     OW 2455   0.844   3.934   0.831 -0.0614 -0.1627 -0.3513
  805SOL    HW1 2456   0.787   4.001   0.869  1.0538 -0.3451  1.8004
  805SOL    HW2 2457   0.783   3.867   0.798 -1.1185  0.6039  0.0036
  806SOL     OW 2458   0.573   3.543   0.510 -0.0407  0.0193  0.0744
  806SOL    HW1 2459   0.479   3.539   0.523 -0.0693  0.4779  0.0282
  806SOL    HW2 2460   0.589   3.494   0.430 -0.1903 -0.4121  0.3049
  807SOL     OW 2461   1.691   3.774   0.761  0.2100 -0.3594 -0.5248
  807SOL    HW1 2462   1.677   3.797   0.852 -0.0415 -0.8189 -0.4477
  807SOL    HW2 2463   1.703   3.679   0.761  1.5693 -0.2099 -0.7958
  808SOL     OW 2464   1.283   4.257   0.439  0.0907  0.0867 -0.0272
  808SOL    HW1 2465   1.281   4.172   0.395  0.5239 -1.4378  2.7059
  808SOL    HW2 2466   1.223   4.312   0.388 -0.1176 -1.7967 -1.9290
  809SOL     OW 2467   4.720   3.960   1.233 -0.0454 -0.3971  0.0458
  809SOL    HW1 2468   4.668   4.033   1.198 -0.8286 -0.3621  1.2350
  809SOL    HW2 2469   4.790   4.002   1.282 -1.2852 -0.3888  1.8956
  810SOL     OW 2470   5.240   4.332   1.562  0.0458  0.4379 -0.4360
  810SOL    HW1 2471   5.176   4.281   1.611  0.7963 -1.0761 -0.9909
  810SOL    HW2 2472   5.324   4.287   1.577  0.7321  1.4931 -0.9649
  811SOL     OW 2473   1.439   4.127   1.309  0.0090  0.0747 -0.6791
  811SOL    HW1 2474   1.382   4.096   1.379 -0.3550  1.7128 -0.2107
  811SOL    HW2 2475   1.508   4.175   1.354  0.1012  0.6367 -1.3991
  812SOL     OW 2476   4.329   4.212   1.302 -0.1739 -0.3157 -0.1499
  812SOL    HW1 2477   4.418   4.219   1.266 -0.4878  1.8239 -0.6362
  812SOL    HW2 2478   4.311   4.298   1.338 -1.1139 -1.4685  2.3267
  813SOL     OW 2479   4.400   3.831   1.886 -0.0068  0.4778  0.1596
  813SOL    HW1 2480   4.393   3.738   1.864  3.5271 -0.0579  0.7627
  813SOL    HW2 2481   4.350   3.876   1.817  0.6841 -1.7465 -1.9115
  814SOL     OW 2482   0.775   4.155   0.384  0.3726  0.5793  0.3747
  814SOL    HW1 2483   0.725   4.217   0.331  0.2843  1.6499  1.6580
  814SOL    HW2 2484   0.711   4.090   0.413  0.6324 -0.7381 -1.7419
  815SOL     OW 2485   1.464   4.391   1.011  0.4137  0.5789 -0.1559
  815SOL    HW1 2486   1.475   4.297   1.024  0.0683  0.6908  1.0462
  815SOL    HW2 2487   1.385   4.413   1.061  0.9472  1.6455  0.2322
  816SOL     OW 2488   4.910   4.108   1.357 -0.0825 -0.6390 -0.0182
  816SOL    HW1 2489   4.958   4.186   1.328 -0.6509 -0.7240 -1.2645
  816SOL    HW2 2490   4.887   4.127   1.448 -0.2773  0.6976 -0.3121
  817SOL     OW 2491   1.272   3.993   0.324 -0.5647  0.8109  0.1789
  817SOL    HW1 2492   1.179   3.981   0.304 -0.5467 -0.5935  0.7871
  817SOL    HW2 2493   1.313   4.008   0.239 -0.9512 -1.6035 -0.5183
  818SOL     OW 2494   1.625   3.643   0.247 -0.2290  0.1162  0.6550
  818SOL    HW1 2495   1.672   3.725   0.230 -0.9374  0.4254  0.1325
  818SOL    HW2 2496   1.692   3.584   0.283  0.4533  0.6833  0.3472
  819SOL     OW 2497   1.421   3.591   0.881 -0.8959  0.0474 -0.8994
  819SOL    HW1 2498   1.331   3.574   0.909 -0.6425 -0.0448 -0.1213
  819SOL    HW2 2499   1.436   3.683   0.905  0.2207 -0.7617  1.8466
  820SOL     OW 2500   4.972   3.752   0.884  0.2998 -0.0523 -0.1628
  820SOL    HW1 2501   4.900   3.815   0.888  0.0596 -0.3667  2.2862
  820SOL    HW2 2502   4.953   3.689   0.954  1.9181 -1.3262 -0.7841
  821SOL     OW 2503   0.971   3.737   1.193  0.1346 -0.3034  0.0274
  821SOL    HW1 2504   1.014   3.721   1.277  1.0185 -3.2071 -0.8776
  821SOL    HW2 2505   0.883   3.700   1.204 -0.1125  0.2761  0.0089
  822SOL     OW 2506   1.972   4.176   0.930  0.2023 -0.4096  0.1189
  822SOL    HW1 2507   2.064   4.200   0.942 -0.4731  2.9196 -0.3557
  822SOL    HW2 2508   1.935   4.247   0.877 -2.2551 -2.5853 -1.3346
  823SOL     OW 2509   4.996   4.326   1.075 -0.2967 -0.6258 -0.1103
  823SOL    HW1 2510   5.018   4.334   1.167 -2.1187 -0.8823  0.3911
  823SOL    HW2 2511   5.080   4.327   1.029  0.7049 -1.6414  1.6294
  824SOL     OW 2512   4.486   4.004   0.202 -0.3011 -0.4092  0.1502
  824SOL    HW1 2513   4.490   3.936   0.270  0.4554 -0.8322 -0.3057
  824SOL    HW2 2514   4.434   4.074   0.242 -0.5171 -0.9689  0.8818
  825SOL     OW 2515   4.104   3.987   0.228 -0.5328  0.3279  0.0449
  825SOL    HW1 2516   4.101   3.967   0.322  0.2469 -1.3046 -0.2340
  825SOL    HW2 2517   4.175   4.051   0.219 -2.5900  2.9243  0.8780
  826SOL     OW 2518   5.148   4.276   1.303  0.1160  0.7747 -0.2171
  826SOL    HW1 2519   5.216   4.269   1.236  1.4268 -3.6362  1.1864
  826SOL    HW2 2520   5.196   4.290   1.385 -0.9236  0.6579  0.4345
  827SOL     OW 2521   1.361   3.677   0.197 -0.3555 -0.0309 -0.7074
  827SOL    HW1 2522   1.372   3.761   0.152 -1.1766  0.2277 -0.4312
  827SOL    HW2 2523   1.449   3.656   0.229  0.1688  0.0084 -2.0124
  828SOL     OW 2524   2.088   4.099   1.723 -0.1159  0.1963 -0.1953
  828SOL    HW1 2525   2.004   4.065   1.755  0.9008 -3.1465 -0.7334
  828SOL    HW2 2526   2.153   4.067   1.785  1.1283 -0.2762 -1.6728
  829SOL     OW 2527   2.258   4.010   1.060 -0.1260  0.1749  0.1277
  829SOL    HW1 2528   2.330   3.950   1.037  0.7126  1.5941 -1.1407
  829SOL    HW2 2529   2.219   3.971   1.139  3.1146  0.2173  1.9316
  830SOL     OW 2530   0.772   3.639   0.673  0.1568 -0.7610  0.1959
  830SOL    HW1 2531   0.702   3.614   0.613 -1.0453  1.1012  0.7298
  830SOL    HW2 2532   0.727   3.657   0.756  1.5188 -1.2296  1.0716
  831SOL     OW 2533   4.826   4.148   1.593 -0.2082  0.0310 -0.2485
  831SOL    HW1 2534   4.790   4.059   1.588  1.6246 -0.7937  0.4158
  831SOL    HW2 2535   4.841   4.162   1.686  2.8262 -0.4239 -0.5726
  832SOL     OW 2536   1.376   3.727   1.252  0.2555  0.0491 -0.8916
  832SOL    HW1 2537   1.455   3.705   1.302  0.2838  0.8776 -0.5647
  832SOL    HW2 2538   1.320   3.649   1.260  0.2958  0.1350  0.3455
  833SOL     OW 2539   5.292   3.569   1.666  0.1123 -0.4943 -0.3856
  833SOL    HW1 2540   5.291   3.480   1.631 -0.7184  0.2675 -2.4459
  833SOL    HW2 2541   5.205   3.580   1.706  0.4965 -0.8422  0.5735
  834SOL     OW 2542   1.469   3.945   0.110  0.1299 -0.0916  0.2701
  834SOL    HW1 2543   1.479   4.040   0.108 -2.3172  0.2238  0.3406
  834SOL    HW2 2544   1.444   3.922   0.020 -0.3714 -0.5142  0.5120
  835SOL     OW 2545   1.436   3.909   0.732 -0.0414  0.0981 -0.1630
  835SOL    HW1 2546   1.370   3.927   0.800  0.6421 -1.2403  0.9223
  835SOL    HW2 2547   1.385   3.892   0.653 -1.0450 -0.9353  0.6609
  836SOL     OW 2548   1.544   3.359   0.845 -0.1624 -0.0144  0.2196
  836SOL    HW1 2549   1.477   3.428   0.849 -1.1987 -0.9569 -0.3213
  836SOL    HW2 2550   1.579   3.365   0.756 -0.9404 -0.7906 -0.1521
  837SOL     OW 2551   2.606   1.738   0.081  0.6414  0.1775  0.6440
  837SOL    HW1 2552   2.592   1.718  -0.011  0.7736  0.6900  0.5102
  837SOL    HW2 2553   2.528   1.786   0.107  1.7153  2.3547  0.1006
  838SOL     OW 2554   4.310   4.207   2.135 -0.0714 -0.4692 -0.3764
  838SOL    HW1 2555   4.246   4.254   2.081 -1.1132  1.1045  2.0742
  838SOL    HW2 2556   4.394   4.242   2.107 -0.4843 -0.4563 -1.6775
  839SOL     OW 2557   1.719   4.066   1.820  0.1675  0.4772  0.0013
  839SOL    HW1 2558   1.790   4.015   1.859 -1.3222  0.8799  3.6270
  839SOL    HW2 2559   1.743   4.157   1.836 -0.6326  0.6412  0.3125
  840SOL     OW 2560   6.146   4.415   2.874 -0.5280 -0.3137 -0.2410
  840SOL    HW1 2561   6.134   4.337   2.928 -1.0675  0.0574  0.1934
  840SOL    HW2 2562   6.103   4.395   2.791 -2.4624  0.2404  0.5758
  841SOL     OW 2563   3.695   1.836   0.305 -0.1785 -0.1597 -0.3524
  841SOL    HW1 2564   3.778   1.855   0.349 -0.5048 -0.1516  0.2671
  841SOL    HW2 2565   3.719   1.775   0.235  0.4689  0.4639 -0.6871
  842SOL     OW 2566   4.647   4.428   2.333  0.4297 -0.1313  0.4852
  842SOL    HW1 2567   4.716   4.364   2.316  0.4622  0.4466 -1.7837
  842SOL    HW2 2568   4.567   4.385   2.305  0.2498  0.2617  0.3995
  843SOL     OW 2569   4.772   3.627   2.201  0.1869 -0.0026 -0.2553
  843SOL    HW1 2570   4.683   3.652   2.224 -0.2396  0.1723 -1.9422
  843SOL    HW2 2571   4.804   3.579   2.277 -1.2204  0.2267  0.5161
  844SOL     OW 2572   5.362   4.371   2.776  0.2524  0.0063 -0.0093
  844SOL    HW1 2573   5.370   4.465   2.759 -0.9133 -0.0463 -1.0052
  844SOL    HW2 2574   5.338   4.365   2.868 -0.7227  0.7666 -0.1949
  845SOL     OW 2575   5.019   4.428   2.795 -0.8552  0.0266 -0.1531
  845SOL    HW1 2576   4.974   4.345   2.776 -1.0176  0.0956 -0.0699
  845SOL    HW2 2577   5.034   4.426   2.890 -4.7817  2.0188  0.6884
  846SOL     OW 2578   4.367   4.399   2.370 -0.3785 -0.2916  0.0079
  846SOL    HW1 2579   4.306   4.470   2.388 -0.9264 -0.6074 -0.5686
  846SOL    HW2 2580   4.311   4.322   2.357 -0.0300 -0.2265 -2.4103
  847SOL     OW 2581   5.329   4.067   1.610  0.1571  0.4635  0.0694
  847SOL    HW1 2582   5.396   3.998   1.602  0.2790  0.5782  0.1130
  847SOL    HW2 2583   5.246   4.020   1.601  0.2509  0.3731 -0.3795
  848SOL     OW 2584   5.249   3.858   2.644 -0.3112  0.1774 -0.3502
  848SOL    HW1 2585   5.171   3.803   2.633 -0.9889  0.9461  0.3888
  848SOL    HW2 2586   5.288   3.864   2.557 -1.0698 -0.2467 -0.7243
  849SOL     OW 2587   1.724   3.958   2.326 -0.3264  0.1083  0.3921
  849SOL    HW1 2588   1.813   3.991   2.339 -0.7843  1.1145  1.1306
  849SOL    HW2 2589   1.715   3.887   2.389 -0.2999  0.5366  0.8855
  850SOL     OW 2590   5.601   3.921   2.095 -0.3032 -0.4960 -0.4332
  850SOL    HW1 2591   5.643   3.840   2.127  0.5458  0.0674 -0.0783
  850SOL    HW2 2592   5.672   3.970   2.054 -0.3981  0.8836  0.9522
  851SOL     OW 2593   5.117   3.885   1.632 -0.2994  0.5608 -0.2301
  851SOL    HW1 2594   5.051   3.835   1.584  0.1577  0.9922 -1.3124
  851SOL    HW2 2595   5.090   3.877   1.724 -2.0594  1.0413 -0.6773
  852SOL     OW 2596   3.229   2.530   0.109 -0.0245  0.4793  0.1563
  852SOL    HW1 2597   3.200   2.522   0.200 -0.8193  0.0167 -0.1209
  852SOL    HW2 2598   3.262   2.619   0.102  1.7707 -0.0391  1.3679
  853SOL     OW 2599   5.372   3.806   2.407 -0.3502  0.0545 -0.0202
  853SOL    HW1 2600   5.342   3.765   2.326 -0.3710  1.9802 -1.0653
  853SOL    HW2 2601   5.428   3.878   2.377  0.3886  0.2503  1.7224
  854SOL     OW 2602   4.534   3.739   2.296  0.2879 -0.3777  0.3256
  854SOL    HW1 2603   4.473   3.787   2.241  0.5124  0.0314  0.4251
  854SOL    HW2 2604   4.501   3.650   2.297  0.2170 -0.3602 -0.3715
  855SOL     OW 2605   5.256   4.344   2.242  0.2089  0.4098 -0.5850
  855SOL    HW1 2606   5.287   4.427   2.279 -0.4642  0.8573 -1.0023
  855SOL    HW2 2607   5.310   4.277   2.283  0.1878  0.9889  0.4036
  856SOL     OW 2608   4.766   4.319   3.063  0.4766 -0.7215  0.0691
  856SOL    HW1 2609   4.820   4.397   3.053 -0.2311 -0.3358 -0.8202
  856SOL    HW2 2610   4.827   4.246   3.056  1.0510 -0.2729  0.3028
  857SOL     OW 2611   2.893   1.383   0.164 -0.0373 -0.6808 -0.3573
  857SOL    HW1 2612   2.893   1.476   0.142  2.0811 -0.0591  1.8752
  857SOL    HW2 2613   2.849   1.341   0.089 -0.7545  2.0261 -1.5908
  858SOL     OW 2614   5.412   3.555   2.530 -0.4244 -1.0422  0.7112
  858SOL    HW1 2615   5.420   3.634   2.477  0.2763 -0.2585  1.9434
  858SOL    HW2 2616   5.318   3.538   2.533 -0.6649  0.2398  1.1135
  859SOL     OW 2617   5.637   4.323   2.765 -0.0681  0.2855 -0.5404
  859SOL    HW1 2618   5.639   4.301   2.672 -0.7445 -0.8924 -0.3030
  859SOL    HW2 2619   5.548   4.354   2.780  0.4467  1.8519 -0.5566
  860SOL     OW 2620   5.077   4.216   1.755  0.1457  0.4703 -0.0916
  860SOL    HW1 2621   5.115   4.222   1.842 -0.8879 -0.4983  0.4663
  860SOL    HW2 2622   5.072   4.122   1.738 -3.7452  0.3308  0.7592
  861SOL     OW 2623   4.957   4.159   2.961 -0.2459  0.0342  0.3257
  861SOL    HW1 2624   5.050   4.142   2.972 -0.1869  1.0537  1.5214
  861SOL    HW2 2625   4.922   4.076   2.927  0.5967 -1.3759  2.6411
  862SOL     OW 2626   5.238   4.255   3.008 -0.3105 -0.0039  0.2013
  862SOL    HW1 2627   5.242   4.258   3.104  0.5770  1.1680  0.1492
  862SOL    HW2 2628   5.258   4.164   2.986 -0.1900 -0.2061  1.1192
  863SOL     OW 2629   4.739   3.949   2.268  0.2006  0.4330  0.0457
  863SOL    HW1 2630   4.669   3.888   2.243  0.2371  0.4953 -0.2189
  863SOL    HW2 2631   4.706   3.995   2.344  0.0278  0.3308  0.0320
  864SOL     OW 2632   4.590   3.821   2.558 -0.5489 -0.2072  0.4521
  864SOL    HW1 2633   4.500   3.827   2.592 -0.6911  1.2424 -0.1414
  864SOL    HW2 2634   4.580   3.780   2.472 -0.5696 -0.5658  0.6215
  865SOL     OW 2635   5.027   4.189   2.210 -0.4787 -0.1297  0.3670
  865SOL    HW1 2636   4.979   4.204   2.292 -0.4480 -1.3706  0.6393
  865SOL    HW2 2637   5.104   4.245   2.217 -2.6237  3.2488 -0.8442
  866SOL     OW 2638   5.002   3.725   2.589 -0.2388  0.6485 -0.4781
  866SOL    HW1 2639   4.937   3.658   2.570 -1.3353  1.1592  1.2678
  866SOL    HW2 2640   5.004   3.779   2.510  1.0618 -1.6621 -2.1387
  867SOL     OW 2641   5.887   4.199   2.487 -0.0667  0.2181 -0.7113
  867SOL    HW1 2642   5.963   4.169   2.438  1.3266  0.1944  1.3606
  867SOL    HW2 2643   5.842   4.119   2.514  1.8276 -0.0476  2.0107
  868SOL     OW 2644   5.481   4.109   1.913  0.1105 -0.4681 -0.5038
  868SOL    HW1 2645   5.505   4.069   1.996  0.1057  1.1043  0.3043
  868SOL    HW2 2646   5.510   4.047   1.846  1.6347 -1.0052  0.6080
  869SOL     OW 2647   4.768   3.589   2.550  0.7450  0.3358  0.0429
  869SOL    HW1 2648   4.723   3.530   2.489  1.4268  1.6179 -1.8001
  869SOL    HW2 2649   4.700   3.648   2.581  0.2953 -0.6365  0.9632
  870SOL     OW 2650   2.984   2.118   0.316  0.0979 -0.2337  0.2961
  870SOL    HW1 2651   2.932   2.191   0.282 -1.4267 -1.8789 -1.0803
  870SOL    HW2 2652   2.959   2.112   0.409  0.7433  1.3449  0.6129
  871SOL     OW 2653   4.655   4.103   2.501 -0.2519 -0.7073 -0.8258
  871SOL    HW1 2654   4.721   4.160   2.540  0.1934 -0.8174 -1.4014
  871SOL    HW2 2655   4.659   4.022   2.551 -1.1473 -0.1223  0.2413
  872SOL     OW 2656   5.052   3.888   1.899 -0.6283  0.2838 -0.1811
  872SOL    HW1 2657   4.983   3.837   1.940 -1.1815  1.3328  0.2215
  872SOL    HW2 2658   5.131   3.867   1.950 -0.3900 -1.6713 -1.2472
  873SOL     OW 2659   5.805   4.544   2.797 -0.5521  0.2694  0.6540
  873SOL    HW1 2660   5.818   4.541   2.891 -0.7651 -2.5750  0.6748
  873SOL    HW2 2661   5.743   4.474   2.778  0.3472 -0.0106 -1.7068
  874SOL     OW 2662   4.789   3.985   2.822  0.4362  0.3617  0.4320
  874SOL    HW1 2663   4.798   3.894   2.850 -0.3918 -0.1717 -0.9197
  874SOL    HW2 2664   4.696   4.005   2.833  0.4373  0.7242 -0.1684
  875SOL     OW 2665   5.789   3.723   2.516  0.5561 -0.3456 -0.3344
  875SOL    HW1 2666   5.805   3.724   2.422  0.8238 -1.0921 -0.2965
  875SOL    HW2 2667   5.874   3.702   2.555  1.0793  2.3756  0.2302
  876SOL     OW 2668   3.991   1.179   0.030  0.6233  0.2881  0.0928
  876SOL    HW1 2669   4.019   1.111   0.092  1.7737 -0.3846 -1.0927
  876SOL    HW2 2670   4.004   1.139  -0.056 -0.2183  1.4562 -0.6029
  877SOL     OW 2671   4.418   3.915   2.124  0.3280 -0.3190  0.4392
  877SOL    HW1 2672   4.446   4.003   2.100 -0.3418 -0.4698 -1.0244
  877SOL    HW2 2673   4.409   3.869   2.041 -0.5333 -1.4033  1.0938
  878SOL     OW 2674   5.166   4.200   2.654 -0.2556 -0.2727 -0.2039
  878SOL    HW1 2675   5.185   4.290   2.682 -1.0258 -0.0291 -0.4298
  878SOL    HW2 2676   5.238   4.148   2.690  0.9871  0.6279 -1.2913
  879SOL     OW 2677   5.655   4.113   2.920 -0.4108  0.3285  0.4370
  879SOL    HW1 2678   5.749   4.111   2.939 -0.3797 -1.0722  0.2293
  879SOL    HW2 2679   5.646   4.174   2.847  0.2340  1.0318  0.9238
  880SOL     OW 2680   3.048   1.813   0.272 -0.2895 -0.2166 -0.4444
  880SOL    HW1 2681   3.012   1.901   0.288  1.4331  0.5801 -0.7293
  880SOL    HW2 2682   2.995   1.778   0.201  0.6199  1.6563 -2.1397
  881SOL     OW 2683   4.537   4.125   1.838  0.4563  0.1733  0.0711
  881SOL    HW1 2684   4.632   4.121   1.841  0.4106 -1.2055  2.1459
  881SOL    HW2 2685   4.509   4.034   1.834 -0.7937  0.5618 -0.7741
  882SOL     OW 2686   3.898   3.835   2.168  0.2728 -0.7075 -0.1534
  882SOL    HW1 2687   3.862   3.912   2.212  0.6981 -0.5852 -0.0081
  882SOL    HW2 2688   3.955   3.871   2.099 -0.3099 -0.8977 -0.7387
  883SOL     OW 2689   5.635   4.312   2.482 -0.4450 -0.2112  0.2542
  883SOL    HW1 2690   5.730   4.300   2.489 -0.3458  0.7960  0.7388
  883SOL    HW2 2691   5.610   4.259   2.406  0.4132 -0.9159  0.4438
  884SOL     OW 2692   3.287   1.718   0.066  0.4936 -0.3408  0.0332
  884SOL    HW1 2693   3.364   1.763   0.030  0.2396  0.3136  0.2932
  884SOL    HW2 2694   3.282   1.750   0.156  0.9801 -1.7692  0.5889
  885SOL     OW 2695   4.817   4.125   1.867 -0.2506 -0.0583 -0.2368
  885SOL    HW1 2696   4.865   4.072   1.931 -2.0838  1.2081  2.3766
  885SOL    HW2 2697   4.834   4.216   1.893 -2.8506  0.4570 -0.0552
  886SOL     OW 2698   4.484   4.357   2.991 -0.1920  0.9554 -0.6364
  886SOL    HW1 2699   4.445   4.290   2.935 -0.5017  0.8801 -0.3267
  886SOL    HW2 2700   4.576   4.331   2.999 -0.5722 -0.1271  0.4991
  887SOL     OW 2701   5.508   3.941   2.728 -0.3478 -0.0110  0.3196
  887SOL    HW1 2702   5.528   3.985   2.811 -1.7227 -0.2506  0.8119
  887SOL    HW2 2703   5.412   3.944   2.722 -0.2603  2.2384 -2.4903
  888SOL     OW 2704   5.268   4.000   2.903 -0.2502  0.5299 -0.1378
  888SOL    HW1 2705   5.315   3.947   2.967  0.5432  2.3044  0.8190
  888SOL    HW2 2706   5.242   3.938   2.835  0.9087 -1.0072  0.7570
  889SOL     OW 2707   1.514   3.903   1.908  0.3861  0.3229 -0.3920
  889SOL    HW1 2708   1.577   3.962   1.867  1.6395 -1.3958 -1.0585
  889SOL    HW2 2709   1.561   3.820   1.916 -1.9750 -1.2287 -1.4797
  890SOL     OW 2710   5.755   3.979   2.611 -0.0920  0.1952 -0.2004
  890SOL    HW1 2711   5.666   3.971   2.646 -0.2464  1.5875 -0.1982
  890SOL    HW2 2712   5.776   3.892   2.578 -1.0927 -0.3916  0.6602
  891SOL     OW 2713   5.921   4.021   2.920 -0.5778  0.7065  0.0371
  891SOL    HW1 2714   5.900   3.929   2.935 -0.8804  0.9242  1.0470
  891SOL    HW2 2715   5.946   4.025   2.828  2.1120 -0.9031  0.5682
  892SOL     OW 2716   4.318   2.513   3.055  0.2123 -0.1048 -0.1166
  892SOL    HW1 2717   4.401   2.466   3.057  0.1614 -0.1948 -0.0912
  892SOL    HW2 2718   4.338   2.599   3.093  0.3113 -0.0961 -0.1875
  893SOL     OW 2719   2.146   4.727   1.123  0.4033  0.0852 -0.1717
  893SOL    HW1 2720   2.064   4.710   1.170 -2.1317  2.5040 -3.2905
  893SOL    HW2 2721   2.147   4.663   1.052  1.4417 -0.1511  0.0365
  894SOL     OW 2722   1.779   4.533   0.583  0.5566  0.2608 -0.4150
  894SOL    HW1 2723   1.720   4.537   0.508 -0.1098  1.3082  0.1327
  894SOL    HW2 2724   1.866   4.537   0.545  0.2126  2.5496 -1.0820
  895SOL     OW 2725   2.591   1.350   1.164 -0.0368 -0.0961 -0.3045
  895SOL    HW1 2726   2.544   1.327   1.244  1.6106 -1.3964  0.3624
  895SOL    HW2 2727   2.559   1.437   1.142 -1.2963 -0.1283  1.1862
  896SOL     OW 2728   3.230   2.131   0.166  0.0710  0.5813  0.5097
  896SOL    HW1 2729   3.299   2.066   0.176  1.3160  2.0361  1.9705
  896SOL    HW2 2730   3.173   2.117   0.242 -0.5663  0.1955 -0.0247
  897SOL     OW 2731   2.966   0.995   0.455 -0.1170  0.5233 -0.9609
  897SOL    HW1 2732   2.987   0.992   0.548  0.2060  0.1753 -1.0441
  897SOL    HW2 2733   2.898   1.062   0.448 -2.6772 -1.7769  0.0431
  898SOL     OW 2734   2.439   1.308   0.925  0.8999 -0.1252 -0.0656
  898SOL    HW1 2735   2.484   1.367   0.985 -0.4267  1.3952 -0.5078
  898SOL    HW2 2736   2.510   1.263   0.879  1.9368  0.1345  1.2099
  899SOL     OW 2737   2.869   5.149   2.202 -0.6101  0.0425  0.0116
  899SOL    HW1 2738   2.948   5.174   2.155 -1.4601 -0.4345 -1.7788
  899SOL    HW2 2739   2.891   5.158   2.295  1.3145  0.5146 -0.4630
  900SOL     OW 2740   2.345   1.381   0.671  0.1481  0.0920  0.3475
  900SOL    HW1 2741   2.362   1.417   0.758  2.0668  0.3859 -0.1121
  900SOL    HW2 2742   2.428   1.391   0.624 -0.6866 -0.5715 -1.3429
  901SOL     OW 2743   2.831   5.724   2.119 -0.2423  0.1195 -0.1294
  901SOL    HW1 2744   2.925   5.738   2.106 -0.3139  0.6943 -0.0529
  901SOL    HW2 2745   2.790   5.798   2.075 -0.5208  1.8669  2.7967
  902SOL     OW 2746   1.953   1.401   0.831  0.0543  0.4274 -0.1923
  902SOL    HW1 2747   2.016   1.356   0.888 -0.3945  0.3078  0.2119
  902SOL    HW2 2748   2.006   1.433   0.759  0.4171 -0.6088 -0.4072
  903SOL     OW 2749   2.971   1.733   1.595  0.1853  0.3178 -0.3991
  903SOL    HW1 2750   3.003   1.644   1.579  1.5220  0.9686 -1.5874
  903SOL    HW2 2751   3.040   1.774   1.648 -0.3361  0.7197 -0.0171
  904SOL     OW 2752   2.179   4.951   1.918 -0.5281 -0.6398 -0.3184
  904SOL    HW1 2753   2.263   4.996   1.911  0.6225 -2.4937  0.7744
  904SOL    HW2 2754   2.196   4.862   1.888 -1.8889 -1.2891  0.6768
  905SOL     OW 2755   3.145   4.898   0.939 -0.6832  0.2427 -0.4240
  905SOL    HW1 2756   3.115   4.935   1.022  1.7440 -0.8889  1.0802
  905SOL    HW2 2757   3.219   4.954   0.915 -0.6895 -0.1058 -1.2600
  906SOL     OW 2758   2.245   1.665   0.195  0.3672 -0.2222  0.0069
  906SOL    HW1 2759   2.196   1.695   0.272  2.6927  1.4871  0.9317
  906SOL    HW2 2760   2.177   1.636   0.134 -1.6289 -0.5184  2.1969
  907SOL     OW 2761   2.750   1.369   1.714 -0.4195 -0.1107  0.1414
  907SOL    HW1 2762   2.732   1.278   1.691  0.3656 -0.3590  0.4583
  907SOL    HW2 2763   2.731   1.374   1.808 -0.8839  0.1675  0.0353
  908SOL     OW 2764   1.531   1.623   0.341  0.4853  0.0010 -0.4858
  908SOL    HW1 2765   1.624   1.631   0.362  0.9016 -2.0995 -1.3012
  908SOL    HW2 2766   1.495   1.710   0.361  2.8078  1.2219 -1.1816
  909SOL     OW 2767   2.074   1.300   0.363 -0.0387 -0.3480  0.3861
  909SOL    HW1 2768   2.091   1.288   0.270  0.0489 -0.6312  0.4376
  909SOL    HW2 2769   1.991   1.254   0.378 -0.8626  1.0033  0.1384
  910SOL     OW 2770   2.358   1.739   1.289 -0.5631  0.5712  0.0917
  910SOL    HW1 2771   2.370   1.683   1.366 -1.6445 -0.0811 -0.1890
  910SOL    HW2 2772   2.343   1.827   1.326 -3.2516 -0.0960  0.7768
  911SOL     OW 2773   3.167   4.197   1.811 -0.2220 -0.1596  1.0854
  911SOL    HW1 2774   3.240   4.171   1.754 -1.9021 -1.6077 -0.5572
  911SOL    HW2 2775   3.129   4.274   1.768 -1.0036 -0.7717  0.6491
  912SOL     OW 2776   2.172   0.488   0.778  0.3400 -0.4963 -0.3895
  912SOL    HW1 2777   2.114   0.475   0.703  1.2949 -0.7010 -1.1167
  912SOL    HW2 2778   2.233   0.556   0.749 -0.1581  0.4635  0.7412
  913SOL     OW 2779   1.932   1.454   0.101 -0.2936  0.1604  0.4912
  913SOL    HW1 2780   1.989   1.386   0.136  0.5573  0.9338  0.6409
  913SOL    HW2 2781   1.855   1.453   0.158  0.1561  0.0095  1.0959
  914SOL     OW 2782   3.510   4.911   0.972 -0.1258 -1.0029  0.2553
  914SOL    HW1 2783   3.477   4.827   1.003  1.8557 -2.9608 -2.4174
  914SOL    HW2 2784   3.459   4.930   0.893 -0.5073  0.3398  0.7875
  915SOL     OW 2785   2.395   5.337   1.505 -0.0089  0.2139  0.3280
  915SOL    HW1 2786   2.382   5.242   1.510  0.1417  0.0903 -1.1735
  915SOL    HW2 2787   2.477   5.347   1.457 -0.2602  1.1144  0.0806
  916SOL     OW 2788   2.252   1.153   0.512  0.1338 -0.1547 -0.3383
  916SOL    HW1 2789   2.176   1.203   0.481 -0.2385 -1.7327 -2.1571
  916SOL    HW2 2790   2.290   1.208   0.580 -2.9192  0.4694  1.0335
  917SOL     OW 2791   3.041   1.471   1.685  0.2606 -0.3153  0.3588
  917SOL    HW1 2792   2.972   1.411   1.657  0.0717 -0.1283  0.4207
  917SOL    HW2 2793   3.061   1.444   1.775  0.0604 -0.1828  0.4447
  918SOL     OW 2794   2.420   0.510   0.410 -0.0089 -0.7734 -0.2593
  918SOL    HW1 2795   2.473   0.562   0.349 -1.1338 -0.1113 -0.6955
  918SOL    HW2 2796   2.480   0.443   0.443  1.6482  1.1655  0.7925
  919SOL     OW 2797   2.256   1.208   1.373 -0.2290  0.2843  0.5977
  919SOL    HW1 2798   2.294   1.138   1.425 -1.5500 -0.9434 -0.0239
  919SOL    HW2 2799   2.331   1.257   1.339  0.7022 -0.6572  1.2383
  920SOL     OW 2800   2.965   2.178   1.819  0.1052 -0.0662 -0.2554
  920SOL    HW1 2801   2.925   2.246   1.764  0.6836 -1.7822 -2.9870
  920SOL    HW2 2802   2.894   2.117   1.837 -0.4731  1.2407  2.4063
  921SOL     OW 2803   2.069   4.672   1.869  0.0463 -0.3059  0.0360
  921SOL    HW1 2804   2.118   4.639   1.945 -0.0934 -1.7001 -0.4455
  921SOL    HW2 2805   2.034   4.593   1.828 -1.1720  0.5484 -0.6124
  922SOL     OW 2806   3.220   1.639   0.947  0.4317  0.6895  0.2654
  922SOL    HW1 2807   3.177   1.702   1.005 -1.2337  1.0894 -1.2870
  922SOL    HW2 2808   3.262   1.576   1.006 -1.2361  1.0207  1.8981
  923SOL     OW 2809   3.434   1.952   0.158  0.4251  0.8232 -0.2546
  923SOL    HW1 2810   3.434   1.951   0.062  1.0983 -1.2915 -0.3016
  923SOL    HW2 2811   3.513   2.000   0.181  1.2489 -0.1997 -0.8392
  924SOL     OW 2812   3.090   1.227   0.984 -0.1118  0.2679 -0.3124
  924SOL    HW1 2813   3.113   1.287   1.055 -0.5387  2.1815 -1.7036
  924SOL    HW2 2814   3.103   1.140   1.021 -1.0034  1.1657  2.3287
  925SOL     OW 2815   2.680   5.219   1.781  0.0062 -0.5908  0.1453
  925SOL    HW1 2816   2.674   5.218   1.877  4.1671 -2.9698  0.6215
  925SOL    HW2 2817   2.633   5.141   1.753 -1.5078  0.2875  0.1472
  926SOL     OW 2818   3.047   4.701   2.258  0.1330  0.0476 -0.3929
  926SOL    HW1 2819   3.095   4.781   2.238 -3.3548  2.4019 -0.3350
  926SOL    HW2 2820   3.055   4.691   2.353  2.0783 -0.8372 -0.6021
  927SOL     OW 2821   3.242   1.145   1.380  0.0633  0.3232 -0.1433
  927SOL    HW1 2822   3.246   1.239   1.366 -0.0149  0.4130  0.4029
  927SOL    HW2 2823   3.159   1.130   1.426  0.7792  0.1893  1.1656
  928SOL     OW 2824   2.823   1.184   1.189  0.5656  0.0204  0.7187
  928SOL    HW1 2825   2.821   1.165   1.095  1.1448  1.2111  0.4404
  928SOL    HW2 2826   2.763   1.257   1.200 -0.5294 -0.9771  1.5161
  929SOL     OW 2827   3.193   0.708   0.569  0.4465 -0.1092 -0.2344
  929SOL    HW1 2828   3.102   0.720   0.599  0.2464 -0.9408 -0.4662
  929SOL    HW2 2829   3.193   0.739   0.479  0.2779 -0.5101 -0.3764
  930SOL     OW 2830   1.967   1.056   0.934  0.0716 -0.1477 -0.4848
  930SOL    HW1 2831   2.023   1.014   0.999 -1.3511 -1.9053 -0.2919
  930SOL    HW2 2832   2.000   1.145   0.927  2.4636 -0.9220  0.0394
  931SOL     OW 2833   1.702   1.583   1.195 -0.5517 -0.3525  0.0607
  931SOL    HW1 2834   1.676   1.674   1.182 -0.6774  0.1694  3.2266
  931SOL    HW2 2835   1.778   1.588   1.253  0.9067 -2.2348 -1.5372
  932SOL     OW 2836   4.355   5.107   1.479  0.2171 -0.5341  0.5993
  932SOL    HW1 2837   4.418   5.162   1.433  0.4590 -0.2705  1.2392
  932SOL    HW2 2838   4.385   5.105   1.569 -0.6702 -0.4318  0.9123
  933SOL     OW 2839   3.132   1.209   0.389 -0.4541  0.1506  0.0375
  933SOL    HW1 2840   3.131   1.184   0.297 -0.1189 -0.7459  0.2720
  933SOL    HW2 2841   3.079   1.143   0.433 -0.7973  0.6969  0.4636
  934SOL     OW 2842   2.808   4.570   0.904  0.3062 -0.1788 -0.1517
  934SOL    HW1 2843   2.896   4.598   0.878  0.8250 -0.9832  0.6765
  934SOL    HW2 2844   2.823   4.507   0.974 -0.9781  0.3229  0.5985
  935SOL     OW 2845   2.844   1.460   0.523  0.5844 -0.0548  0.2597
  935SOL    HW1 2846   2.878   1.375   0.494  1.5415  0.0025  1.1379
  935SOL    HW2 2847   2.902   1.524   0.481  0.2008  0.1434  0.0305
  936SOL     OW 2848   2.122   1.747   0.432 -0.0442 -0.3553  0.0995
  936SOL    HW1 2849   2.165   1.808   0.492 -0.6646  2.6670 -2.2985
  936SOL    HW2 2850   2.055   1.704   0.486  0.8840  0.5686  2.0694
  937SOL     OW 2851   3.472   0.880   1.069 -0.3020 -0.0580  0.3001
  937SOL    HW1 2852   3.486   0.789   1.044 -0.2881 -0.3405  1.2951
  937SOL    HW2 2853   3.529   0.930   1.010 -0.3805 -0.6769 -0.3143
  938SOL     OW 2854   2.771   1.780   1.756 -0.0724  0.3876  0.6037
  938SOL    HW1 2855   2.772   1.870   1.790  2.2649  0.4169  0.6670
  938SOL    HW2 2856   2.847   1.776   1.698 -0.2783 -1.4894  0.3965
  939SOL     OW 2857   3.193   0.980   1.136  0.2072 -0.5636  0.6702
  939SOL    HW1 2858   3.204   1.034   1.214  0.1709  2.8037 -1.4761
  939SOL    HW2 2859   3.282   0.954   1.112  0.8536  2.6698 -0.8595
  940SOL     OW 2860   2.454   1.379   1.401 -0.1291 -0.7030  0.5144
  940SOL    HW1 2861   2.499   1.456   1.435 -0.2500 -1.1885  1.8647
  940SOL    HW2 2862   2.395   1.353   1.472 -3.5505  0.6215 -1.5938
  941SOL     OW 2863   2.010   5.105   1.316 -0.4427 -0.1077  0.6066
  941SOL    HW1 2864   2.057   5.047   1.257 -2.0670 -0.5790 -0.2503
  941SOL    HW2 2865   2.013   5.191   1.273 -0.7689 -0.2378  0.3223
  942SOL     OW 2866   4.432   3.806   2.835 -0.2952 -0.5497 -0.0600
  942SOL    HW1 2867   4.500   3.854   2.788  0.0408 -1.3964 -0.4695
  942SOL    HW2 2868   4.480   3.750   2.897 -0.7545  1.2478  2.0516
  943SOL     OW 2869   2.078   1.445   0.599 -0.0611 -0.0766  0.3119
  943SOL    HW1 2870   2.042   1.439   0.511 -0.3576  3.0964  0.0992
  943SOL    HW2 2871   2.173   1.446   0.587 -0.1010  1.7773 -0.1996
  944SOL     OW 2872   2.744   1.619   0.940  0.5465 -0.2298 -0.1177
  944SOL    HW1 2873   2.767   1.527   0.954 -0.8153 -0.4296  0.9690
  944SOL    HW2 2874   2.653   1.626   0.968  0.1483  1.1416 -1.6207
  945SOL     OW 2875   1.893   0.440   0.212 -0.0584  0.2890 -0.6047
  945SOL    HW1 2876   1.830   0.431   0.284 -0.7292 -0.0195 -1.2130
  945SOL    HW2 2877   1.862   0.516   0.162 -0.3521 -0.2554 -1.2797
  946SOL     OW 2878   3.440   4.236   1.610 -0.3052 -0.1290 -0.2258
  946SOL    HW1 2879   3.351   4.270   1.597  0.0094  0.7708 -0.1576
  946SOL    HW2 2880   3.469   4.279   1.691  0.2633 -0.2620 -0.3609
  947SOL     OW 2881   3.033   5.050   1.901  0.3350 -0.6452  0.2738
  947SOL    HW1 2882   3.072   5.116   1.959 -1.2373  1.0331 -0.4821
  947SOL    HW2 2883   2.970   5.004   1.957 -0.1482  0.0088  0.2859
  948SOL     OW 2884   2.930   1.765   1.095  0.2768 -0.2199 -0.2949
  948SOL    HW1 2885   2.889   1.719   1.022 -0.6502  1.8857 -1.1631
  948SOL    HW2 2886   2.885   1.730   1.172  0.2681 -1.4199 -0.8136
  949SOL     OW 2887   3.218   4.916   1.777  0.0756 -0.2901 -0.1352
  949SOL    HW1 2888   3.224   4.829   1.815 -0.2303 -0.4209 -0.3782
  949SOL    HW2 2889   3.166   4.966   1.839  3.2699  0.8050  1.9076
  950SOL     OW 2890   2.666   1.271   0.751 -0.8256  0.1337 -0.7009
  950SOL    HW1 2891   2.662   1.315   0.667  1.6761 -0.1847 -1.0539
  950SOL    HW2 2892   2.730   1.320   0.802 -0.9552 -0.7406  0.3541
  951SOL     OW 2893   2.670   0.345   0.449 -0.0511 -0.0976  0.4724
  951SOL    HW1 2894   2.684   0.377   0.538  0.5531 -1.6821  0.9882
  951SOL    HW2 2895   2.626   0.260   0.461  0.3553 -0.4911 -0.7031
  952SOL     OW 2896   2.410   4.179   0.327  0.1821  0.3619  0.0162
  952SOL    HW1 2897   2.407   4.181   0.423 -1.5442  0.5744 -0.0108
  952SOL    HW2 2898   2.380   4.266   0.301  0.6243  0.2959 -0.7273
  953SOL     OW 2899   2.635   1.026   1.375 -0.1012 -0.8237  0.4266
  953SOL    HW1 2900   2.731   1.033   1.372  0.1077 -3.2453 -0.3020
  953SOL    HW2 2901   2.616   0.940   1.339 -2.4784 -1.1438  2.2175
  954SOL     OW 2902   3.040   1.621   0.733  0.1074  0.4376 -0.5855
  954SOL    HW1 2903   3.094   1.625   0.812 -1.0716  0.0957  0.2838
  954SOL    HW2 2904   3.082   1.555   0.678  1.0291  0.7819 -0.3106
  955SOL     OW 2905   2.068   0.777   0.443 -0.5472 -0.0000 -0.1403
  955SOL    HW1 2906   2.044   0.801   0.353 -1.0584 -1.1223 -0.3188
  955SOL    HW2 2907   1.996   0.811   0.496 -2.3274 -2.7056 -0.5986
  956SOL     OW 2908   2.875   2.466   0.744 -0.1582  0.2422  0.2333
  956SOL    HW1 2909   2.801   2.516   0.777 -0.2341 -0.2543  0.8359
  956SOL    HW2 2910   2.937   2.464   0.816  0.2954  0.3607 -0.1491
  957SOL     OW 2911   2.120   1.034   1.189 -0.0351 -0.1381 -0.4527
  957SOL    HW1 2912   2.198   0.979   1.197  0.8466  1.0937 -0.2901
  957SOL    HW2 2913   2.122   1.090   1.266  0.0957  1.3538 -1.4980
  958SOL     OW 2914   2.628   4.743   1.221  0.1827 -0.6137  0.2924
  958SOL    HW1 2915   2.677   4.752   1.139 -1.7677 -1.6373 -1.0586
  958SOL    HW2 2916   2.554   4.687   1.198 -1.9184  1.2483  2.1012
  959SOL     OW 2917   2.745   0.644   0.706 -0.1360  0.1772  0.2608
  959SOL    HW1 2918   2.689   0.722   0.710  0.3336  0.5374 -0.1561
  959SOL    HW2 2919   2.683   0.571   0.705 -0.5707  0.4977  1.4669
  960SOL     OW 2920   3.199   4.180   0.156 -0.2787 -0.2212 -0.3181
  960SOL    HW1 2921   3.172   4.150   0.243 -0.6732 -0.1944 -0.4299
  960SOL    HW2 2922   3.122   4.166   0.101 -0.0640 -0.1379 -0.6388
  961SOL     OW 2923   3.263   1.180   0.726  0.1094  0.5396 -0.0113
  961SOL    HW1 2924   3.281   1.205   0.817  0.1924  2.0131 -0.4050
  961SOL    HW2 2925   3.334   1.122   0.702  0.5176  0.7693  0.6277
  962SOL     OW 2926   3.454   4.979   1.236 -0.1414 -0.1735 -0.3113
  962SOL    HW1 2927   3.460   4.939   1.149 -0.0649  0.4608 -0.6073
  962SOL    HW2 2928   3.501   5.062   1.227  0.8712 -0.6164  0.6498
  963SOL     OW 2929   3.854   0.489   0.547 -0.2280 -0.1773 -0.2800
  963SOL    HW1 2930   3.824   0.528   0.629  0.7469  0.0289 -0.0092
  963SOL    HW2 2931   3.779   0.437   0.517 -0.1811 -1.3118  1.3993
  964SOL     OW 2932   3.447   0.986   0.744  0.0625 -0.0815 -0.1097
  964SOL    HW1 2933   3.490   1.026   0.820  0.6949  0.4037 -0.7017
  964SOL    HW2 2934   3.509   0.999   0.672  0.6710 -2.8521 -0.1877
  965SOL     OW 2935   2.643   0.316   0.058 -0.3148 -0.0359 -0.1768
  965SOL    HW1 2936   2.642   0.246   0.123 -1.1022 -0.1175 -0.2639
  965SOL    HW2 2937   2.552   0.321   0.027 -0.0554  0.3367 -0.9045
  966SOL     OW 2938   3.618   1.343   1.422  0.5145  0.3471 -0.1588
  966SOL    HW1 2939   3.605   1.428   1.382 -0.3240  0.5895  0.6113
  966SOL    HW2 2940   3.694   1.355   1.479 -0.3197  0.9294  0.8669
  967SOL     OW 2941   2.753   1.669   1.290 -0.0447 -0.6417  0.3421
  967SOL    HW1 2942   2.771   1.747   1.343  0.1364 -0.7287  0.4072
  967SOL    HW2 2943   2.683   1.624   1.338 -1.1418  0.2004 -0.4189
  968SOL     OW 2944   3.425   1.567   1.634  0.1813  0.2791  0.2089
  968SOL    HW1 2945   3.397   1.654   1.663 -0.1461  0.6108 -1.0529
  968SOL    HW2 2946   3.507   1.582   1.588  0.7556 -0.2612  1.0251
  969SOL     OW 2947   3.135   1.383   1.175 -0.0867 -0.3761  0.0343
  969SOL    HW1 2948   3.199   1.454   1.164 -0.4235 -0.1535 -0.4999
  969SOL    HW2 2949   3.068   1.420   1.233  0.1437 -0.5276  0.3985
  970SOL     OW 2950   3.381   1.222   0.975  0.1026  0.3025 -0.1275
  970SOL    HW1 2951   3.437   1.170   1.032  0.7699  0.5095 -0.5788
  970SOL    HW2 2952   3.306   1.244   1.029  0.5987  0.2779  0.5890
  971SOL     OW 2953   2.764   4.613   1.413 -0.0376 -0.3276 -0.1741
  971SOL    HW1 2954   2.844   4.635   1.366 -0.7182  1.3875 -0.6302
  971SOL    HW2 2955   2.694   4.649   1.358 -1.0427 -0.8705  0.7241
  972SOL     OW 2956   2.912   5.459   2.080 -0.6915  0.6394  0.1412
  972SOL    HW1 2957   2.859   5.539   2.085 -0.4620  0.7848  0.2733
  972SOL    HW2 2958   2.888   5.409   2.158 -3.1912 -0.9111 -1.4432
  973SOL     OW 2959   2.627   4.936   1.438  0.0139 -0.2439  0.1424
  973SOL    HW1 2960   2.628   4.863   1.376  0.5925 -1.5616  1.6368
  973SOL    HW2 2961   2.692   4.997   1.404  1.4907 -1.6882  0.2632
  974SOL     OW 2962   3.240   4.886   1.378  0.3636 -0.6191  0.5045
  974SOL    HW1 2963   3.249   4.799   1.416 -0.0438 -0.2741  1.4334
  974SOL    HW2 2964   3.325   4.904   1.338  0.8704 -0.9456  1.4082
  975SOL     OW 2965   2.050   1.580   1.334  0.3977  0.1503  0.2271
  975SOL    HW1 2966   1.982   1.647   1.329 -0.2043 -0.1808  2.6971
  975SOL    HW2 2967   2.131   1.625   1.310 -0.2318  1.3530  0.3160
  976SOL     OW 2968   2.270   0.843   0.068  0.1533  0.3009 -0.1989
  976SOL    HW1 2969   2.289   0.919   0.013  0.2156  1.1106  0.9057
  976SOL    HW2 2970   2.328   0.853   0.143 -2.0258  0.8791  1.4951
  977SOL     OW 2971   2.509   4.959   0.901  0.1703  0.2804 -0.4496
  977SOL    HW1 2972   2.451   4.952   0.825 -0.5809  0.3087  0.1044
  977SOL    HW2 2973   2.549   5.046   0.892  1.5087 -0.4269 -1.7777
  978SOL     OW 2974   2.985   1.530   1.380  0.0959  0.0038  0.0705
  978SOL    HW1 2975   2.898   1.552   1.348 -1.2942 -0.2501  3.2985
  978SOL    HW2 2976   2.972   1.453   1.435  2.3556 -0.0169  0.6881
  979SOL     OW 2977   3.585   0.372   0.531 -0.3118  0.0889  0.0782
  979SOL    HW1 2978   3.528   0.364   0.607 -0.6563 -1.3997 -0.3061
  979SOL    HW2 2979   3.535   0.425   0.468 -1.3395 -1.2242 -0.2702
  980SOL     OW 2980   2.029   1.345   1.495  0.2296 -0.3802 -1.1058
  980SOL    HW1 2981   2.110   1.297   1.484 -0.4996 -1.5570 -1.4968
  980SOL    HW2 2982   2.040   1.425   1.443  1.1769 -0.4581 -1.0316
  981SOL     OW 2983   2.581   5.608   1.908 -0.0718 -0.0781  0.2261
  981SOL    HW1 2984   2.552   5.554   1.835 -1.6548  1.2143 -0.1590
  981SOL    HW2 2985   2.505   5.615   1.966  0.1637  1.4737  0.4050
  982SOL     OW 2986   3.643   5.013   1.518 -0.5531  0.0319  1.1138
  982SOL    HW1 2987   3.624   5.006   1.611 -0.5459 -1.1190  1.0340
  982SOL    HW2 2988   3.564   5.050   1.479 -0.6611  0.2349  1.5265
  983SOL     OW 2989   2.801   4.575   2.201 -0.1941  0.1624 -0.3813
  983SOL    HW1 2990   2.802   4.481   2.181  0.3353 -0.3482  1.6877
  983SOL    HW2 2991   2.893   4.596   2.221  0.0395  1.6304 -2.7059
  984SOL     OW 2992   2.480   4.311   1.132 -0.7124  0.0280  0.0546
  984SOL    HW1 2993   2.558   4.300   1.187 -1.0167 -1.9176  0.1680
  984SOL    HW2 2994   2.506   4.275   1.047 -1.1139  0.4689 -0.2559
  985SOL     OW 2995   2.160   1.269   1.020  0.5717  0.1777 -0.2992
  985SOL    HW1 2996   2.234   1.307   0.972  0.5617 -1.5618 -1.7857
  985SOL    HW2 2997   2.202   1.220   1.091  0.6862  1.1649  0.3370
  986SOL     OW 2998   3.486   5.224   1.423 -0.3752  0.9256 -0.3642
  986SOL    HW1 2999   3.492   5.301   1.478  0.2649  1.0094 -0.5503
  986SOL    HW2 3000   3.398   5.190   1.440 -0.2807  1.0914  0.5040
  987SOL     OW 3001   2.857   0.332   0.234 -0.6225 -0.0737 -0.2757
  987SOL    HW1 3002   2.815   0.344   0.320 -1.7001 -0.7995 -0.6700
  987SOL    HW2 3003   2.784   0.335   0.172 -0.1734 -1.8771 -0.9566
  988SOL     OW 3004   2.411   4.566   1.161  0.1925  0.2776 -0.4751
  988SOL    HW1 3005   2.462   4.488   1.139  0.4534  0.7281 -1.5831
  988SOL    HW2 3006   2.321   4.536   1.167  0.5192 -0.4441  1.0212
  989SOL     OW 3007   1.529   1.329   1.570 -0.1573 -0.0812 -0.2416
  989SOL    HW1 3008   1.621   1.322   1.545  0.0665 -0.3247  0.6322
  989SOL    HW2 3009   1.502   1.239   1.588 -0.6469 -0.0430 -0.7546
  990SOL     OW 3010   2.327   0.885   0.504 -0.7183  0.1719  0.0367
  990SOL    HW1 3011   2.297   0.975   0.517 -0.8142 -0.0918  1.8759
  990SOL    HW2 3012   2.250   0.839   0.470 -0.8872  0.6098 -0.1853
  991SOL     OW 3013   3.784   5.220   1.337 -0.1964 -0.7988 -0.0364
  991SOL    HW1 3014   3.770   5.125   1.337  0.0478 -0.8416  1.0907
  991SOL    HW2 3015   3.711   5.256   1.387  1.0704 -0.6406  1.8083
  992SOL     OW 3016   2.397   4.476   0.517  0.2305  0.5439  0.2069
  992SOL    HW1 3017   2.370   4.520   0.597 -1.4083 -0.5424  0.3169
  992SOL    HW2 3018   2.353   4.390   0.521  1.1731 -0.0472 -1.2218
  993SOL     OW 3019   2.971   0.811   0.688  0.0400 -0.5067  0.1526
  993SOL    HW1 3020   3.005   0.848   0.770  0.4442 -0.9427  0.1835
  993SOL    HW2 3021   2.906   0.747   0.715  0.8082 -1.3020  0.1770
  994SOL     OW 3022   2.675   1.595   1.576 -0.2121  0.6522 -0.0839
  994SOL    HW1 3023   2.700   1.662   1.640 -2.5142 -0.0822  1.7427
  994SOL    HW2 3024   2.723   1.517   1.603 -1.0386  0.3934  0.7324
  995SOL     OW 3025   3.834   1.448   1.540 -0.4420  0.7971 -0.6637
  995SOL    HW1 3026   3.924   1.469   1.518 -0.0717  0.1803  0.1997
  995SOL    HW2 3027   3.835   1.436   1.635 -1.5863  1.5345 -0.5402
  996SOL     OW 3028   2.324   5.650   2.026 -0.3597  0.1637 -0.6200
  996SOL    HW1 3029   2.296   5.585   2.091 -0.6666  0.8478 -0.0605
  996SOL    HW2 3030   2.298   5.734   2.063  2.1575  0.8338 -0.1781
  997SOL     OW 3031   2.898   1.396   0.869  0.1201 -0.3105  0.3118
  997SOL    HW1 3032   2.972   1.344   0.899  0.9800 -0.6703 -2.1590
  997SOL    HW2 3033   2.938   1.469   0.822 -1.1115  0.8109  0.9464
  998SOL     OW 3034   2.061   4.962   0.981  0.2432 -0.1239  0.0127
  998SOL    HW1 3035   2.109   4.915   1.050 -1.9380  0.6486  2.2292
  998SOL    HW2 3036   2.075   4.909   0.902 -1.5218 -4.3164  2.1699
  999SOL     OW 3037   2.380   4.949   1.165  0.4747 -0.0510 -0.0205
  999SOL    HW1 3038   2.347   4.866   1.130 -2.2499  1.4998 -1.4745
  999SOL    HW2 3039   2.457   4.969   1.110  0.5922 -1.1297 -0.2742
 1000SOL     OW 3040   2.248   4.580   2.055 -0.4271  0.0575  0.1430
 1000SOL    HW1 3041   2.246   4.521   2.130  2.7853 -0.7029 -0.2270
 1000SOL    HW2 3042   2.328   4.631   2.066 -0.6209  0.9445 -2.0485
 1001SOL     OW 3043   2.377   5.019   1.457  0.2512 -0.1243  0.4607
 1001SOL    HW1 3044   2.339   4.989   1.374 -0.5001  0.6671  0.5163
 1001SOL    HW2 3045   2.469   4.991   1.452 -0.1831 -1.6010  0.1087
 1002SOL     OW 3046   1.849   1.220   0.490 -0.5337 -0.4567 -0.1927
 1002SOL    HW1 3047   1.833   1.251   0.580  0.5061 -1.0059  0.2020
 1002SOL    HW2 3048   1.767   1.177   0.465 -0.5120 -1.1572  0.8708
 1003SOL     OW 3049   2.029   1.721   0.725  0.4509  0.5795 -0.4608
 1003SOL    HW1 3050   2.055   1.768   0.804  1.4897  0.0210 -0.4500
 1003SOL    HW2 3051   2.075   1.637   0.731  0.3412  0.4324 -1.5287
 1004SOL     OW 3052   1.778   1.562   0.505 -0.1336  0.3137  0.2532
 1004SOL    HW1 3053   1.761   1.617   0.582  0.9804  0.3631  0.4811
 1004SOL    HW2 3054   1.778   1.473   0.538  1.4628  0.4019  0.5419
 1005SOL     OW 3055   2.576   0.997   1.086  0.0706 -0.4081  0.0735
 1005SOL    HW1 3056   2.575   1.076   1.139 -0.2385 -0.2261 -0.1928
 1005SOL    HW2 3057   2.638   1.016   1.015  0.7258 -0.7713  0.5422
 1006SOL     OW 3058   1.825   0.787   0.962 -0.2622 -0.1806  0.3911
 1006SOL    HW1 3059   1.902   0.741   0.994  0.3585  0.3886 -0.2394
 1006SOL    HW2 3060   1.854   0.827   0.880 -1.1938  0.1444  0.2135
 1007SOL     OW 3061   2.580   4.956   1.707  0.3851 -0.0918  0.1671
 1007SOL    HW1 3062   2.572   4.866   1.739  1.3786 -0.4032 -0.4141
 1007SOL    HW2 3063   2.599   4.947   1.614 -1.4153  0.7725 -0.3374
 1008SOL     OW 3064   3.367   5.141   1.710 -0.0088  0.3214  0.2160
 1008SOL    HW1 3065   3.456   5.125   1.742  0.5268 -2.9245 -2.3224
 1008SOL    HW2 3066   3.315   5.070   1.748 -1.3198  1.5736  0.8227
 1009SOL     OW 3067   3.219   5.133   1.477 -0.2531 -0.1306  0.2438
 1009SOL    HW1 3068   3.239   5.146   1.570  3.4672 -0.2083 -0.3716
 1009SOL    HW2 3069   3.227   5.038   1.465 -1.5013 -0.2108 -0.0539
 1010SOL     OW 3070   2.370   1.636   1.538 -0.2877 -0.4294  0.1882
 1010SOL    HW1 3071   2.320   1.558   1.565 -0.9300 -0.4040 -0.8808
 1010SOL    HW2 3072   2.445   1.637   1.597 -1.0045 -1.0604  1.1581
 1011SOL     OW 3073   2.771   4.866   0.993 -0.4265 -0.5069  0.1802
 1011SOL    HW1 3074   2.796   4.815   0.916 -1.8909 -0.7448 -0.1619
 1011SOL    HW2 3075   2.681   4.892   0.977 -0.0478  1.3930  0.7921
 1012SOL     OW 3076   3.110   2.078   1.386 -0.3130  1.1199  0.5529
 1012SOL    HW1 3077   3.163   2.019   1.440 -0.9976  1.3118  1.4487
 1012SOL    HW2 3078   3.165   2.095   1.309  1.6881  2.6055  2.1609
 1013SOL     OW 3079   4.550   2.296   3.025  0.1171 -0.1834  0.2522
 1013SOL    HW1 3080   4.584   2.225   2.970 -0.4769 -0.5873  0.4057
 1013SOL    HW2 3081   4.599   2.374   2.996  1.6531 -0.8665  0.9117
 1014SOL     OW 3082   1.668   1.164   1.192 -0.0140 -0.3915 -0.0717
 1014SOL    HW1 3083   1.763   1.173   1.192 -0.2087  2.6005 -0.3088
 1014SOL    HW2 3084   1.643   1.173   1.100 -0.5892  0.5165  0.1527
 1015SOL     OW 3085   3.268   1.413   1.479 -0.1092  0.5773  0.4445
 1015SOL    HW1 3086   3.317   1.480   1.526 -1.2999  0.9067  1.2550
 1015SOL    HW2 3087   3.176   1.441   1.485 -0.4434 -0.1425 -0.8182
 1016SOL     OW 3088   3.163   0.368   0.568 -0.0335  0.0038 -0.4153
 1016SOL    HW1 3089   3.178   0.458   0.539 -0.2225  0.0703 -0.3065
 1016SOL    HW2 3090   3.118   0.326   0.494  0.3940 -0.1063 -0.6147
 1017SOL     OW 3091   3.338   1.923   1.479 -0.0073  0.1528 -0.3446
 1017SOL    HW1 3092   3.413   1.896   1.426  1.1676  0.0240  1.2854
 1017SOL    HW2 3093   3.374   1.989   1.538 -0.9598 -0.5167  1.0399
 1018SOL     OW 3094   3.060   2.071   0.966  0.5976 -0.2270  0.3282
 1018SOL    HW1 3095   3.116   2.012   1.016 -0.5981 -1.1542  0.6329
 1018SOL    HW2 3096   3.044   2.024   0.883  0.4478  0.1266  0.1550
 1019SOL     OW 3097   1.744   1.065   0.762  0.2783 -0.0652 -0.2683
 1019SOL    HW1 3098   1.813   1.051   0.826 -0.6860 -1.6862  0.4593
 1019SOL    HW2 3099   1.734   1.161   0.757  1.9208  0.1520  0.2748
 1020SOL     OW 3100   2.868   1.900   1.400  0.0895  0.6522 -0.4770
 1020SOL    HW1 3101   2.922   1.967   1.358  1.3252  1.0684  1.6619
 1020SOL    HW2 3102   2.928   1.853   1.458 -1.0366 -1.5022 -0.9565
 1021SOL     OW 3103   3.388   4.692   0.734  0.1968  0.0148  0.5451
 1021SOL    HW1 3104   3.310   4.700   0.679  1.2683  1.6867 -0.8739
 1021SOL    HW2 3105   3.360   4.720   0.821 -0.9777 -0.2858  0.2820
 1022SOL     OW 3106   3.415   2.311   0.563  0.4709  0.1763  0.2581
 1022SOL    HW1 3107   3.426   2.376   0.632  1.4005 -0.7120  0.9729
 1022SOL    HW2 3108   3.327   2.276   0.577  0.7120 -0.1146  1.1233
 1023SOL     OW 3109   2.118   1.759   1.704  0.0540 -0.4030  0.3422
 1023SOL    HW1 3110   2.193   1.714   1.665  0.1352 -0.4461  0.5489
 1023SOL    HW2 3111   2.125   1.849   1.673 -0.0202 -0.4933  0.0571
 1024SOL     OW 3112   3.125   1.509   0.349 -0.1925  0.2835 -0.5877
 1024SOL    HW1 3113   3.079   1.439   0.303  1.9952  1.1339 -4.5071
 1024SOL    HW2 3114   3.110   1.587   0.296  1.6703  1.6317  0.7328
 1025SOL     OW 3115   3.080   5.406   1.592 -0.1319  0.1093  0.0287
 1025SOL    HW1 3116   3.099   5.453   1.673 -3.8172  2.0452 -0.0188
 1025SOL    HW2 3117   3.072   5.315   1.618 -1.9766  0.7803  2.0859
 1026SOL     OW 3118   3.137   1.928   1.676  0.2671  0.0561 -0.1181
 1026SOL    HW1 3119   3.185   1.983   1.615  0.3128 -0.3854 -0.4833
 1026SOL    HW2 3120   3.119   1.985   1.750  0.2358  0.5865 -0.5308
 1027SOL     OW 3121   3.361   4.713   1.073  0.2428 -0.4457 -0.1922
 1027SOL    HW1 3122   3.292   4.646   1.075  0.8903 -1.1500 -0.7264
 1027SOL    HW2 3123   3.395   4.715   1.163 -0.5404 -0.0173  0.0983
 1028SOL     OW 3124   2.340   4.611   0.765 -0.3255  0.7698  0.0073
 1028SOL    HW1 3125   2.273   4.680   0.770 -3.3671 -1.7856 -1.9401
 1028SOL    HW2 3126   2.323   4.555   0.840  0.4859  0.7319  0.1743
 1029SOL     OW 3127   2.964   1.284   1.450 -0.2740  0.4470  0.1503
 1029SOL    HW1 3128   2.961   1.228   1.372 -3.6712 -1.9656  1.7728
 1029SOL    HW2 3129   2.997   1.228   1.519  0.5325  1.8768  0.9730
 1030SOL     OW 3130   2.252   1.464   1.715  0.1191  0.1483 -0.2097
 1030SOL    HW1 3131   2.180   1.401   1.709 -0.9704  0.9708  2.7000
 1030SOL    HW2 3132   2.241   1.505   1.801  2.1672  2.6497 -1.0188
 1031SOL     OW 3133   3.557   1.184   1.217  0.2533  0.1323  0.3132
 1031SOL    HW1 3134   3.553   1.238   1.297 -1.9377 -0.7063  0.8423
 1031SOL    HW2 3135   3.533   1.096   1.247 -1.3659 -0.0485 -1.3516
 1032SOL     OW 3136   2.972   1.136   0.710 -0.2578  0.2433  0.6756
 1032SOL    HW1 3137   2.933   1.223   0.707 -0.2383  0.3230  2.0850
 1032SOL    HW2 3138   3.060   1.151   0.744  0.1846 -0.2050 -0.2347
 1033SOL     OW 3139   2.992   4.744   1.248 -0.4648  0.5591 -0.1355
 1033SOL    HW1 3140   3.006   4.789   1.332 -0.7793 -0.8624  0.7149
 1033SOL    HW2 3141   3.004   4.813   1.182  1.1561  1.4379  0.9831
 1034SOL     OW 3142   2.514   1.163   0.382 -0.2403 -0.3807  0.4298
 1034SOL    HW1 3143   2.426   1.152   0.418  0.1400 -2.1607  0.9159
 1034SOL    HW2 3144   2.551   1.236   0.430 -1.0366 -0.3842  1.0674
 1035SOL     OW 3145   4.393   3.219   2.955  0.1724 -0.4389 -0.2140
 1035SOL    HW1 3146   4.462   3.285   2.957 -0.5017  0.2871  1.1047
 1035SOL    HW2 3147   4.328   3.253   2.893  0.5654 -0.6728 -0.7598
 1036SOL     OW 3148   1.809   1.317   1.672 -0.0401  0.3381 -0.3850
 1036SOL    HW1 3149   1.824   1.222   1.675  1.6732  0.6050  1.6655
 1036SOL    HW2 3150   1.871   1.349   1.607 -1.7012 -0.0488 -2.2504
 1037SOL     OW 3151   2.856   4.918   2.034 -0.2011 -0.1465  0.2623
 1037SOL    HW1 3152   2.845   4.957   2.121  0.6565 -2.9617  1.7623
 1037SOL    HW2 3153   2.767   4.917   1.997 -0.9028 -0.4229  1.8602
 1038SOL     OW 3154   2.004   0.169   0.180 -0.3241 -0.3070 -0.1006
 1038SOL    HW1 3155   1.973   0.209   0.261 -1.0352 -1.7434  0.3652
 1038SOL    HW2 3156   2.022   0.243   0.122  1.8852  0.8570  1.9103
 1039SOL     OW 3157   2.839   5.137   1.405  0.1852 -0.4832  0.3148
 1039SOL    HW1 3158   2.876   5.168   1.488  2.1664 -1.6774 -0.0644
 1039SOL    HW2 3159   2.915   5.122   1.349 -0.9707 -1.8391 -0.9700
 1040SOL     OW 3160   1.722   4.467   0.185 -0.0225 -0.1574 -1.2036
 1040SOL    HW1 3161   1.809   4.434   0.162  0.2724  0.1386 -0.5610
 1040SOL    HW2 3162   1.729   4.562   0.173  1.1737  0.5049  2.9262
 1041SOL     OW 3163   2.983   5.523   1.822 -0.1904  0.2738  0.2688
 1041SOL    HW1 3164   2.908   5.505   1.766  0.4021  0.2792 -0.5459
 1041SOL    HW2 3165   2.954   5.497   1.909 -0.6362 -1.1351 -0.2634
 1042SOL     OW 3166   3.458   1.951   1.006 -0.2158  0.0614  0.0711
 1042SOL    HW1 3167   3.383   1.893   1.013 -1.0260  0.8819 -1.4018
 1042SOL    HW2 3168   3.444   2.017   1.073  0.0151 -0.6498  0.8394
 1043SOL     OW 3169   2.759   5.431   1.627  0.1395 -0.5139 -0.0416
 1043SOL    HW1 3170   2.701   5.447   1.553  0.8923 -0.4758 -0.6325
 1043SOL    HW2 3171   2.727   5.349   1.665 -2.4259  1.1761  1.7357
 1044SOL     OW 3172   3.508   5.489   1.578  0.0850  0.6438 -0.0407
 1044SOL    HW1 3173   3.424   5.511   1.620 -0.2182 -1.9004  0.8520
 1044SOL    HW2 3174   3.523   5.561   1.516 -3.0997  0.8683 -0.7236
 1045SOL     OW 3175   2.017   2.044   1.129  0.1700  0.4009  0.1185
 1045SOL    HW1 3176   1.965   1.994   1.192 -2.1604  0.5177 -1.5805
 1045SOL    HW2 3177   1.954   2.102   1.086  2.2056  2.4636 -0.2852
 1046SOL     OW 3178   3.819   1.295   1.192 -0.0920 -0.2576 -0.6854
 1046SOL    HW1 3179   3.790   1.206   1.176  1.8073 -1.4802  1.9271
 1046SOL    HW2 3180   3.743   1.340   1.228 -0.1424 -2.0570  1.7117
 1047SOL     OW 3181   3.024   4.663   0.788  0.3093 -0.3776  0.0842
 1047SOL    HW1 3182   3.068   4.662   0.702  0.8868 -1.1870  0.3754
 1047SOL    HW2 3183   3.063   4.737   0.834 -3.0750  2.9790 -1.8364
 1048SOL     OW 3184   2.604   0.864   0.813  0.2166 -0.1821 -0.1887
 1048SOL    HW1 3185   2.647   0.894   0.893 -1.5004  0.6344  0.4930
 1048SOL    HW2 3186   2.616   0.935   0.750  0.3201 -0.1846 -0.1707
 1049SOL     OW 3187   3.880   4.900   1.434 -0.1379 -0.3715  0.2942
 1049SOL    HW1 3188   3.932   4.908   1.514 -0.0628 -0.8497  0.2996
 1049SOL    HW2 3189   3.796   4.940   1.455 -0.2545 -0.8412  0.7417
 1050SOL     OW 3190   3.834   4.888   1.128  0.0332  0.2208 -0.1349
 1050SOL    HW1 3191   3.893   4.948   1.081 -0.1132  1.1295  0.8079
 1050SOL    HW2 3192   3.746   4.915   1.101 -0.0040 -0.1199 -0.3535
 1051SOL     OW 3193   2.318   1.649   0.808 -0.0444 -0.1801  0.0194
 1051SOL    HW1 3194   2.310   1.737   0.844  0.3593 -0.8666  1.9096
 1051SOL    HW2 3195   2.346   1.663   0.718  2.0057  1.6261  0.8310
 1052SOL     OW 3196   2.904   0.813   1.005  0.1586  0.0324 -0.1399
 1052SOL    HW1 3197   2.868   0.726   0.990 -1.3343  0.2211  1.9047
 1052SOL    HW2 3198   2.949   0.805   1.090  1.9965  0.7160 -0.9888
 1053SOL     OW 3199   3.390   1.583   0.315  0.5680  0.9285 -0.6687
 1053SOL    HW1 3200   3.432   1.504   0.349  2.7295  2.4647  0.4317
 1053SOL    HW2 3201   3.298   1.575   0.342  1.1057 -0.4207  0.9144
 1054SOL     OW 3202   2.204   1.622   1.940  0.1322 -0.3711 -0.2331
 1054SOL    HW1 3203   2.173   1.697   1.890  2.1487  1.5407  1.1630
 1054SOL    HW2 3204   2.141   1.613   2.012 -0.5020 -0.4963 -0.7951
 1055SOL     OW 3205   1.820   0.873   0.559  0.5606 -0.8216  0.3406
 1055SOL    HW1 3206   1.796   0.884   0.468  0.3973 -0.7679  0.3907
 1055SOL    HW2 3207   1.782   0.948   0.604  0.1888 -1.1279  0.5383
 1056SOL     OW 3208   2.471   1.662   2.010  0.4798 -0.0451  0.0371
 1056SOL    HW1 3209   2.387   1.635   1.974  0.6690 -2.0288  0.9718
 1056SOL    HW2 3210   2.475   1.756   1.993 -1.3958 -0.1155 -1.0596
 1057SOL     OW 3211   3.650   4.730   1.319 -0.0387  0.3817  0.1242
 1057SOL    HW1 3212   3.617   4.809   1.362 -1.3741  1.1846 -2.1810
 1057SOL    HW2 3213   3.574   4.673   1.312  0.2251  0.1340 -0.8486
 1058SOL     OW 3214   2.377   0.644   0.652 -0.0498 -0.9836 -0.0262
 1058SOL    HW1 3215   2.397   0.580   0.583 -0.5601 -1.3202  0.1334
 1058SOL    HW2 3216   2.378   0.728   0.607 -0.3381 -1.1960 -0.4402
 1059SOL     OW 3217   3.187   1.702   1.355 -0.2317 -0.0667 -0.1728
 1059SOL    HW1 3218   3.117   1.648   1.393  0.6754 -1.2251 -0.0739
 1059SOL    HW2 3219   3.211   1.763   1.425 -0.9458  0.1475 -0.1094
 1060SOL     OW 3220   2.355   0.901   1.196 -0.8259 -0.1495  0.4884
 1060SOL    HW1 3221   2.419   0.936   1.133 -1.2291 -0.9559 -0.4080
 1060SOL    HW2 3222   2.377   0.808   1.202 -0.9623 -0.1263  1.3500
 1061SOL     OW 3223   2.426   1.706   0.544 -0.0399  0.1602 -0.3415
 1061SOL    HW1 3224   2.415   1.650   0.467  2.0416  0.3958 -0.8812
 1061SOL    HW2 3225   2.416   1.795   0.509 -0.0636  0.2343 -0.1447
 1062SOL     OW 3226   3.470   4.523   1.291 -0.2955  0.5415 -0.1934
 1062SOL    HW1 3227   3.480   4.446   1.234  1.4823 -0.4856  1.3829
 1062SOL    HW2 3228   3.458   4.486   1.379  1.8123  2.0064  0.7917
 1063SOL     OW 3229   2.542   4.672   1.726  0.0487 -0.1467  0.1122
 1063SOL    HW1 3230   2.568   4.680   1.818  0.9869 -1.8626  0.0434
 1063SOL    HW2 3231   2.564   4.582   1.702 -1.3654 -0.1415 -1.4495
 1064SOL     OW 3232   2.450   1.579   1.057 -0.1930 -0.2361  0.1180
 1064SOL    HW1 3233   2.419   1.649   1.115  0.1695 -0.0619  0.1043
 1064SOL    HW2 3234   2.407   1.596   0.973  1.1559  0.9585 -0.3755
 1065SOL     OW 3235   3.288   4.658   1.496 -0.1279 -0.4523  0.7066
 1065SOL    HW1 3236   3.227   4.586   1.505  1.6012 -1.8093  2.5706
 1065SOL    HW2 3237   3.349   4.648   1.570 -0.2591  3.4002  1.5585
 1066SOL     OW 3238   3.055   5.088   1.226  0.5488  0.0688  0.1412
 1066SOL    HW1 3239   3.100   5.081   1.311  0.8444 -0.7673 -0.0801
 1066SOL    HW2 3240   3.101   5.158   1.180  1.0670 -0.1887  0.2619
 1067SOL     OW 3241   4.599   2.571   2.949 -0.9719  0.1219  0.0256
 1067SOL    HW1 3242   4.569   2.659   2.971  1.7699  1.0193  0.6424
 1067SOL    HW2 3243   4.576   2.560   2.857  0.7556  2.5781 -0.8098
 1068SOL     OW 3244   2.131   5.176   2.144  0.0912  0.1371  0.1757
 1068SOL    HW1 3245   2.152   5.117   2.071 -0.3159  1.7169 -1.2633
 1068SOL    HW2 3246   2.096   5.117   2.212  1.5432 -1.5142 -0.4221
 1069SOL     OW 3247   2.191   4.720   2.968 -0.4435 -0.0336 -0.1386
 1069SOL    HW1 3248   2.141   4.687   3.042  0.3404 -0.9412  0.0054
 1069SOL    HW2 3249   2.153   4.676   2.892 -0.7880  0.3626 -0.1983
 1070SOL     OW 3250   2.357   4.508   2.516  0.6767  0.0860 -0.2033
 1070SOL    HW1 3251   2.413   4.440   2.555 -0.6811  0.0504  1.8276
 1070SOL    HW2 3252   2.275   4.502   2.564 -1.1580  0.1080 -3.1241
 1071SOL     OW 3253   6.047   5.498   2.862  0.1123 -0.4848  0.0888
 1071SOL    HW1 3254   6.008   5.424   2.816 -0.8999 -0.3122  0.6509
 1071SOL    HW2 3255   5.973   5.557   2.880  1.0886  1.5168 -1.8770
 1072SOL     OW 3256   3.357   6.078   2.541  0.2749 -0.0392  0.7221
 1072SOL    HW1 3257   3.289   6.113   2.599  0.0459 -0.9205  0.9948
 1072SOL    HW2 3258   3.319   5.999   2.504  1.5200 -1.1300  1.6824
 1073SOL     OW 3259   3.287   5.116   2.741 -0.3243 -0.4867 -0.2552
 1073SOL    HW1 3260   3.374   5.077   2.753  0.0451  0.8656  2.1691
 1073SOL    HW2 3261   3.227   5.052   2.780 -0.4230 -1.2686 -1.6315
 1074SOL     OW 3262   3.387   5.258   1.951 -0.5801  0.1250 -0.1139
 1074SOL    HW1 3263   3.353   5.241   1.863  0.7066  0.3762 -0.6715
 1074SOL    HW2 3264   3.455   5.325   1.939  0.7353 -0.9809  0.8445
 1075SOL     OW 3265   0.455   2.867   0.103 -0.7374 -0.2994  0.1093
 1075SOL    HW1 3266   0.549   2.873   0.088 -0.4907 -0.4039  1.4836
 1075SOL    HW2 3267   0.438   2.933   0.171 -2.3858  2.7852 -2.9643
 1076SOL     OW 3268   2.661   5.168   2.890 -0.0568 -0.0374  0.6943
 1076SOL    HW1 3269   2.595   5.121   2.942 -1.0355  3.2373  2.7156
 1076SOL    HW2 3270   2.688   5.241   2.946  1.8524  1.4525 -1.9352
 1077SOL     OW 3271   4.263   3.528   0.283  0.3348  0.2180  0.3259
 1077SOL    HW1 3272   4.197   3.476   0.238 -0.0769 -0.4432  1.6427
 1077SOL    HW2 3273   4.328   3.464   0.312  0.7551  0.6711  0.3951
 1078SOL     OW 3274   3.309   4.815   2.192 -0.2608 -0.2456  0.0716
 1078SOL    HW1 3275   3.319   4.880   2.262 -1.0760 -0.7454  0.6732
 1078SOL    HW2 3276   3.351   4.855   2.116  2.1041 -0.3811  1.2253
 1079SOL     OW 3277   1.742   2.213   2.065  0.0468  0.3852  0.1265
 1079SOL    HW1 3278   1.824   2.168   2.085 -1.0585 -1.2532  1.1839
 1079SOL    HW2 3279   1.765   2.306   2.065  1.9537 -0.0514  0.0792
 1080SOL     OW 3280   2.011   5.795   2.622 -0.2112 -0.0771 -0.5870
 1080SOL    HW1 3281   2.002   5.827   2.532 -0.6157  1.9445  0.1239
 1080SOL    HW2 3282   1.951   5.721   2.627 -0.5688  0.0997 -1.8297
 1081SOL     OW 3283   4.163   3.097   0.017 -0.0995 -0.6573  0.0408
 1081SOL    HW1 3284   4.103   3.027  -0.006 -0.5490 -0.0593 -0.6560
 1081SOL    HW2 3285   4.250   3.063  -0.004 -0.5101  0.3921 -4.3014
 1082SOL     OW 3286   2.494   5.393   2.223 -0.2501  0.5395 -0.1424
 1082SOL    HW1 3287   2.525   5.484   2.223 -0.5189  0.6350 -0.4798
 1082SOL    HW2 3288   2.537   5.353   2.299  1.1601  0.5095 -0.9111
 1083SOL     OW 3289   5.964   4.789   2.294  0.2811 -0.0587 -0.4052
 1083SOL    HW1 3290   5.883   4.739   2.303 -0.1198  0.8298  1.6429
 1083SOL    HW2 3291   5.988   4.811   2.384  2.2283  0.6176 -1.0394
 1084SOL     OW 3292   3.649   1.967   2.302  0.0875 -0.0596 -0.0651
 1084SOL    HW1 3293   3.700   1.976   2.382 -2.5837  2.0825  1.5879
 1084SOL    HW2 3294   3.677   2.041   2.248 -1.3682  1.3808  1.0263
 1085SOL     OW 3295   1.828   1.742   1.726 -0.3007  0.2067 -0.1998
 1085SOL    HW1 3296   1.807   1.679   1.794  0.3271  1.6717  1.4384
 1085SOL    HW2 3297   1.924   1.743   1.723 -0.2982 -0.7880 -2.0892
 1086SOL     OW 3298   3.734   5.292   2.525  0.1960  0.2898  0.5190
 1086SOL    HW1 3299   3.751   5.223   2.589 -0.1731 -0.9274 -0.6457
 1086SOL    HW2 3300   3.815   5.342   2.520  0.0745  0.7278  2.2671
 1087SOL     OW 3301   3.348   5.685   2.218  0.5005  0.3858  0.1838
 1087SOL    HW1 3302   3.301   5.625   2.160 -0.4612  0.5287  0.7897
 1087SOL    HW2 3303   3.346   5.769   2.173  1.1987  0.1437 -0.3211
 1088SOL     OW 3304   2.273   5.728   2.675  0.0748 -0.0835 -0.0845
 1088SOL    HW1 3305   2.284   5.649   2.621  1.5019 -0.7173  1.0429
 1088SOL    HW2 3306   2.179   5.746   2.672 -0.5122 -2.5863  0.6190
 1089SOL     OW 3307   1.073   3.422   0.131  0.4256 -0.1995 -0.8160
 1089SOL    HW1 3308   1.055   3.329   0.117  0.7800 -0.2336 -1.0544
 1089SOL    HW2 3309   1.044   3.464   0.050 -0.2632 -0.0290 -0.4867
 1090SOL     OW 3310   2.749   4.125   2.374  0.2452  0.5327 -0.0695
 1090SOL    HW1 3311   2.710   4.097   2.456  0.2407 -1.2049 -0.6230
 1090SOL    HW2 3312   2.842   4.139   2.395  0.3089 -0.2142  0.1711
 1091SOL     OW 3313   3.128   5.317   2.691  0.2383  0.5130  0.1751
 1091SOL    HW1 3314   3.193   5.251   2.715 -0.7712 -0.3564  0.6126
 1091SOL    HW2 3315   3.177   5.383   2.641  1.3008 -0.4780 -0.1208
 1092SOL     OW 3316   3.102   5.769   2.920  0.1433 -0.9009 -0.1284
 1092SOL    HW1 3317   3.132   5.738   2.835 -0.6384  2.5683 -1.8088
 1092SOL    HW2 3318   3.179   5.811   2.959 -0.1409 -0.2125 -0.2951
 1093SOL     OW 3319   3.821   2.292   2.644 -0.1696 -0.6608  0.4058
 1093SOL    HW1 3320   3.825   2.259   2.733  0.6069  0.7460  0.9283
 1093SOL    HW2 3321   3.912   2.311   2.621 -0.5171  0.6157 -0.0201
 1094SOL     OW 3322   2.407   5.086   1.870 -0.0628 -0.1519  0.2912
 1094SOL    HW1 3323   2.454   5.029   1.810  0.1377 -1.5335  1.7052
 1094SOL    HW2 3324   2.475   5.123   1.927 -0.4882 -1.0564  1.4330
 1095SOL     OW 3325   3.456   4.667   2.789  0.1551  0.6272 -0.0468
 1095SOL    HW1 3326   3.386   4.673   2.853 -1.7021 -2.5724 -1.5294
 1095SOL    HW2 3327   3.491   4.579   2.800  1.3280  0.8041 -1.8762
 1096SOL     OW 3328   3.332   1.759   1.785  0.5798  0.7741  0.5844
 1096SOL    HW1 3329   3.358   1.790   1.872 -0.6269  1.5060  0.6962
 1096SOL    HW2 3330   3.244   1.793   1.772 -0.3805 -1.6197  0.1945
 1097SOL     OW 3331   2.903   5.181   2.474  0.0852  0.2189  0.4253
 1097SOL    HW1 3332   2.883   5.094   2.508  0.9484 -0.1957 -0.0898
 1097SOL    HW2 3333   2.985   5.205   2.517  0.8076 -0.0109 -0.7886
 1098SOL     OW 3334   2.172   5.342   2.844  0.0912  1.0249 -0.6784
 1098SOL    HW1 3335   2.093   5.333   2.791 -0.7279  2.0211  0.3254
 1098SOL    HW2 3336   2.144   5.318   2.932  1.1360  0.5479 -0.4610
 1099SOL     OW 3337   2.527   4.365   2.294  0.0092  0.2666 -0.0564
 1099SOL    HW1 3338   2.544   4.346   2.202 -0.0019 -0.1641  0.0266
 1099SOL    HW2 3339   2.560   4.454   2.307  0.2808  0.2195 -0.4055
 1100SOL     OW 3340   3.338   5.503   2.645  0.2276  0.5610 -0.0885
 1100SOL    HW1 3341   3.269   5.568   2.629 -0.6238 -0.1529  0.5497
 1100SOL    HW2 3342   3.387   5.499   2.563 -0.4776  1.1229 -0.5495
 1101SOL     OW 3343   2.644   4.492   2.835  0.1983 -0.0468 -0.0751
 1101SOL    HW1 3344   2.674   4.457   2.751  1.6226  0.4266  0.2070
 1101SOL    HW2 3345   2.551   4.468   2.839  0.4972 -1.5155 -1.0340
 1102SOL     OW 3346   2.867   5.988   2.959  0.0625 -0.0780  0.4984
 1102SOL    HW1 3347   2.940   5.933   2.932 -0.2414 -0.3565  0.2520
 1102SOL    HW2 3348   2.852   5.965   3.051 -0.7317 -1.1446  0.1100
 1103SOL     OW 3349   2.213   6.030   2.756 -0.2633 -0.3158  0.0282
 1103SOL    HW1 3350   2.298   6.046   2.715 -0.3887  0.3519  0.0158
 1103SOL    HW2 3351   2.225   6.060   2.847 -0.4094 -0.4547  0.0938
 1104SOL     OW 3352   3.757   4.715   2.295 -0.1804 -0.1966  0.4246
 1104SOL    HW1 3353   3.682   4.661   2.319  0.1851 -0.2767  1.4546
 1104SOL    HW2 3354   3.741   4.799   2.339  0.0252  0.0056  0.1225
 1105SOL     OW 3355   2.237   5.430   2.189 -0.3438  0.4664 -0.0351
 1105SOL    HW1 3356   2.329   5.408   2.198  0.3810  3.0073 -0.3077
 1105SOL    HW2 3357   2.195   5.349   2.162  1.9053 -0.6128 -0.5190
 1106SOL     OW 3358   3.417   4.803   2.565 -0.4456 -0.1380  0.2136
 1106SOL    HW1 3359   3.419   4.784   2.659  1.1109  1.4874  0.5766
 1106SOL    HW2 3360   3.397   4.897   2.561 -2.1284 -0.4964 -1.1915
 1107SOL     OW 3361   2.890   6.021   2.439 -0.1226 -0.0479  0.0116
 1107SOL    HW1 3362   2.796   6.040   2.449 -0.3106 -0.1600 -1.3045
 1107SOL    HW2 3363   2.909   6.045   2.348  1.0922 -0.1803  0.2245
 1108SOL     OW 3364   3.481   1.385   1.863 -0.6721 -0.2469 -0.2484
 1108SOL    HW1 3365   3.479   1.464   1.809 -1.7705 -0.6347 -0.8268
 1108SOL    HW2 3366   3.409   1.332   1.828  0.9768 -2.1718 -0.8917
 1109SOL     OW 3367   2.155   1.877   2.336  0.8902 -0.2577  0.0987
 1109SOL    HW1 3368   2.170   1.784   2.317  2.4740 -0.1703  0.7057
 1109SOL    HW2 3369   2.128   1.878   2.428  0.7493 -0.1220  0.0558
 1110SOL     OW 3370   3.559   4.576   1.987  0.1429  0.0854 -0.1740
 1110SOL    HW1 3371   3.604   4.660   1.974  0.9667 -0.3523 -0.2567
 1110SOL    HW2 3372   3.586   4.549   2.075  0.5452 -0.4764 -0.4640
 1111SOL     OW 3373   2.328   5.789   2.945 -0.0737 -1.2093  0.5424
 1111SOL    HW1 3374   2.238   5.759   2.961 -0.5730  0.1999  0.5642
 1111SOL    HW2 3375   2.322   5.836   2.861  0.3678 -0.1082  1.1024
 1112SOL     OW 3376   2.305   5.169   2.436 -0.0228  0.4285  0.1244
 1112SOL    HW1 3377   2.356   5.167   2.356 -0.8993 -1.9384 -0.4611
 1112SOL    HW2 3378   2.368   5.151   2.506  0.3543  0.0926 -0.3023
 1113SOL     OW 3379   2.625   4.386   1.683  0.2750  0.1878 -0.4468
 1113SOL    HW1 3380   2.688   4.342   1.626 -0.1270 -2.3002  0.8872
 1113SOL    HW2 3381   2.547   4.329   1.680 -1.9667  3.0826 -1.9663
 1114SOL     OW 3382   0.413   3.334   0.114  0.1885  0.0977  0.3566
 1114SOL    HW1 3383   0.343   3.347   0.050 -0.8486 -0.8961  1.2674
 1114SOL    HW2 3384   0.483   3.293   0.063  0.3804  1.6301 -0.6947
 1115SOL     OW 3385   2.852   4.944   2.871  0.3290  0.0806  0.0045
 1115SOL    HW1 3386   2.798   5.023   2.877  0.1763  0.0206 -0.5750
 1115SOL    HW2 3387   2.792   4.875   2.847  0.6836  0.0390 -0.7751
 1116SOL     OW 3388   2.582   4.365   2.592 -0.1781 -0.9226 -0.9911
 1116SOL    HW1 3389   2.573   4.270   2.590  1.0368 -1.0599 -2.7429
 1116SOL    HW2 3390   2.636   4.385   2.516 -0.9135  1.2428 -1.0099
 1117SOL     OW 3391   3.274   1.243   1.754  0.1662 -0.1213  0.1716
 1117SOL    HW1 3392   3.198   1.240   1.813  1.5174  4.1543  2.5934
 1117SOL    HW2 3393   3.239   1.280   1.673 -0.7139 -0.2624  0.4688
 1118SOL     OW 3394   2.621   4.630   1.985  0.1899  0.4939  0.0253
 1118SOL    HW1 3395   2.604   4.540   2.012  0.1001  0.7066  0.6872
 1118SOL    HW2 3396   2.694   4.659   2.040  0.3075  0.7818 -0.2763
 1119SOL     OW 3397   2.986   4.674   2.606  0.3784  0.1466  0.1266
 1119SOL    HW1 3398   2.992   4.581   2.624 -0.3211 -0.0039 -0.3653
 1119SOL    HW2 3399   2.892   4.694   2.615 -0.0837  0.0251 -3.3303
 1120SOL     OW 3400   0.709   4.103   0.038 -0.1487  0.2325  0.0719
 1120SOL    HW1 3401   0.712   4.052   0.119  1.5407  0.7820  0.4087
 1120SOL    HW2 3402   0.703   4.037  -0.031 -1.7579 -0.2411  0.6146
 1121SOL     OW 3403   2.434   5.549   2.909  0.5384  0.4057 -0.4942
 1121SOL    HW1 3404   2.387   5.632   2.919  0.1626  0.1718 -0.2845
 1121SOL    HW2 3405   2.368   5.483   2.928  0.4705  0.0204 -1.9784
 1122SOL     OW 3406   3.958   5.922   2.456 -0.0314  0.2549  0.0758
 1122SOL    HW1 3407   3.904   5.873   2.518  0.0943 -0.4824 -0.3758
 1122SOL    HW2 3408   4.016   5.856   2.418  1.6415  1.1220  0.9927
 1123SOL     OW 3409   3.125   4.555   2.029 -0.3368  0.1697 -0.6747
 1123SOL    HW1 3410   3.193   4.611   1.991 -1.6342  2.7543  0.5309
 1123SOL    HW2 3411   3.096   4.602   2.107  0.6875 -3.8073  2.4036
 1124SOL     OW 3412   4.048   2.308   0.235 -0.0091  0.3981 -0.6936
 1124SOL    HW1 3413   4.035   2.335   0.326  0.5513 -0.1887 -0.4287
 1124SOL    HW2 3414   3.961   2.310   0.196 -0.1758  1.2130 -0.3034
 1125SOL     OW 3415   3.048   4.933   2.585  0.3504  0.0970 -0.0252
 1125SOL    HW1 3416   3.020   4.841   2.585 -1.7198  0.6578  1.7519
 1125SOL    HW2 3417   3.042   4.960   2.676  1.3948  1.8988 -0.4492
 1126SOL     OW 3418   2.719   4.749   2.695 -0.3824 -0.3392 -0.4668
 1126SOL    HW1 3419   2.644   4.776   2.643 -0.2853 -3.8388 -2.7863
 1126SOL    HW2 3420   2.686   4.679   2.751  0.7507 -0.6108 -0.1053
 1127SOL     OW 3421   3.114   5.427   2.952  0.6027  0.8773  0.3014
 1127SOL    HW1 3422   3.095   5.411   2.859  0.0318 -1.0330  0.7144
 1127SOL    HW2 3423   3.034   5.467   2.985 -0.0519 -0.4729  0.4242
 1128SOL     OW 3424   3.932   5.324   2.153  0.1414  0.3544 -0.3452
 1128SOL    HW1 3425   3.980   5.361   2.079 -0.0773 -0.0598 -0.6979
 1128SOL    HW2 3426   3.999   5.310   2.221  0.2128  1.4411 -0.1832
 1129SOL     OW 3427   2.372   2.047   2.277  0.3997  0.3689  0.0456
 1129SOL    HW1 3428   2.402   2.081   2.361  0.8256  0.0884  0.0099
 1129SOL    HW2 3429   2.304   1.984   2.300  2.3644 -1.7495  0.3728
 1130SOL     OW 3430   3.336   1.593   2.089  0.2209  0.6233 -0.5451
 1130SOL    HW1 3431   3.406   1.637   2.040 -0.3987  1.3723 -0.7758
 1130SOL    HW2 3432   3.293   1.663   2.137  0.0100  0.0772  0.0827
 1131SOL     OW 3433   3.651   5.103   1.795  0.8729 -0.2169 -0.4321
 1131SOL    HW1 3434   3.662   5.193   1.827  1.8976 -0.1997 -0.8104
 1131SOL    HW2 3435   3.740   5.070   1.785  0.5618 -2.2036  2.1894
 1132SOL     OW 3436   2.659   4.810   2.241 -0.0907  0.7075 -0.0156
 1132SOL    HW1 3437   2.728   4.744   2.230  0.3672  1.1849 -0.0080
 1132SOL    HW2 3438   2.578   4.758   2.250  0.3698  0.1113  0.8518
 1133SOL     OW 3439   3.510   4.943   2.827  0.9352 -0.0107 -0.3943
 1133SOL    HW1 3440   3.602   4.960   2.851  0.6825 -0.6488  1.2117
 1133SOL    HW2 3441   3.478   4.886   2.898 -0.6869  0.1565 -0.9648
 1134SOL     OW 3442   2.595   5.282   2.435 -0.1690 -0.2733 -0.2048
 1134SOL    HW1 3443   2.622   5.191   2.440  1.7887  0.3338  1.4684
 1134SOL    HW2 3444   2.570   5.305   2.525 -2.0662  0.4746 -0.8633
 1135SOL     OW 3445   4.252   2.891   0.407 -0.3331  0.0092 -0.1954
 1135SOL    HW1 3446   4.321   2.948   0.375  2.3816 -2.0080  1.6355
 1135SOL    HW2 3447   4.215   2.851   0.328 -0.2385  1.9418 -1.2801
 1136SOL     OW 3448   3.738   3.550   0.268  0.6574  0.8352  0.1060
 1136SOL    HW1 3449   3.660   3.509   0.304 -0.5172  2.3913 -0.5648
 1136SOL    HW2 3450   3.804   3.543   0.337  0.5445 -2.0734  0.0427
 1137SOL     OW 3451   2.498   5.309   2.698  0.2991 -0.6084  0.1391
 1137SOL    HW1 3452   2.566   5.260   2.743 -0.1678 -0.8645  0.5749
 1137SOL    HW2 3453   2.505   5.398   2.732  0.8254 -0.4885 -0.2849
 1138SOL     OW 3454   2.501   4.832   2.584  0.0124  0.1216  0.1936
 1138SOL    HW1 3455   2.460   4.776   2.650 -0.7918 -0.2397 -0.5872
 1138SOL    HW2 3456   2.428   4.865   2.532  0.7172 -2.0918 -2.4978
 1139SOL     OW 3457   2.937   5.700   2.464  0.3445  0.1562  0.3986
 1139SOL    HW1 3458   2.867   5.728   2.523  0.0369 -1.3473  0.7780
 1139SOL    HW2 3459   2.915   5.610   2.440  1.5170  0.0608 -0.4434
 1140SOL     OW 3460   2.871   5.595   3.009  0.1720 -0.2146 -0.3277
 1140SOL    HW1 3461   2.924   5.675   3.003  0.4777 -0.3581  0.3805
 1140SOL    HW2 3462   2.809   5.602   2.937  0.2077  0.6535 -0.2815
 1141SOL     OW 3463   3.781   5.100   2.087  0.1755  0.3805 -0.4363
 1141SOL    HW1 3464   3.838   5.097   2.010  1.6981  0.5161  0.6270
 1141SOL    HW2 3465   3.805   5.182   2.130 -0.1834 -0.0097  0.5204
 1142SOL     OW 3466   6.256   5.678   2.958 -0.2205 -0.3950  0.1378
 1142SOL    HW1 3467   6.258   5.772   2.940  0.0041 -0.5524 -0.6898
 1142SOL    HW2 3468   6.174   5.648   2.919 -0.3172 -0.5392  0.4480
 1143SOL     OW 3469   2.757   5.348   3.056 -0.2402 -0.3457  0.4718
 1143SOL    HW1 3470   2.810   5.427   3.045 -0.8197  0.1091  0.8921
 1143SOL    HW2 3471   2.815   5.288   3.104 -0.1679  0.2237  1.1275
 1144SOL     OW 3472   1.262   2.571   0.228  0.2435 -0.4683 -0.1866
 1144SOL    HW1 3473   1.212   2.614   0.298 -0.3635 -0.5043 -0.5933
 1144SOL    HW2 3474   1.354   2.591   0.249  0.0234  0.2388  0.1462
 1145SOL     OW 3475   3.438   4.981   2.045 -0.1486  0.6812 -0.1629
 1145SOL    HW1 3476   3.440   5.072   2.074  0.8451  0.8289 -0.6397
 1145SOL    HW2 3477   3.505   4.977   1.977 -0.2184 -0.4001 -0.1762
 1146SOL     OW 3478   3.666   3.295   0.104  0.5529  0.3057 -0.4907
 1146SOL    HW1 3479   3.720   3.372   0.092 -0.4463  0.9765 -0.7929
 1146SOL    HW2 3480   3.588   3.312   0.051  0.6157 -1.2129 -1.1380
 1147SOL     OW 3481   0.937   2.697   0.280  0.4490 -0.2479  0.1305
 1147SOL    HW1 3482   0.943   2.763   0.211  0.5679 -1.0950 -0.6880
 1147SOL    HW2 3483   0.876   2.735   0.344  0.0063  0.3679 -0.6410
 1148SOL     OW 3484   2.384   4.157   2.426 -0.2824 -0.4114 -0.0435
 1148SOL    HW1 3485   2.443   4.197   2.361 -0.7932 -1.8261 -1.4609
 1148SOL    HW2 3486   2.440   4.093   2.471 -0.1296 -0.0103  0.3382
 1149SOL     OW 3487   3.726   4.817   2.030 -0.1809  0.0473 -0.4582
 1149SOL    HW1 3488   3.747   4.782   2.117 -2.0380 -0.1318 -0.0290
 1149SOL    HW2 3489   3.726   4.912   2.042 -1.2138  0.0057 -0.0375
 1150SOL     OW 3490   3.179   4.887   2.876 -0.2855  0.0368  0.1265
 1150SOL    HW1 3491   3.251   4.840   2.919  0.5658  1.5610  0.4423
 1150SOL    HW2 3492   3.100   4.850   2.914  0.3025 -1.8109 -0.3695
 1151SOL     OW 3493   3.752   4.760   1.752 -0.3597 -0.6396  0.8002
 1151SOL    HW1 3494   3.823   4.812   1.713 -0.2907 -1.1564  0.2079
 1151SOL    HW2 3495   3.748   4.789   1.843 -0.3964  0.4778  0.4578
 1152SOL     OW 3496   3.129   5.214   2.154  0.0028  0.3036  0.2342
 1152SOL    HW1 3497   3.130   5.143   2.218 -0.4931 -0.2157 -0.3311
 1152SOL    HW2 3498   3.221   5.227   2.130  0.0229 -0.6646 -0.2334
 1153SOL     OW 3499   2.685   5.638   2.809  0.4319 -0.0488  0.0644
 1153SOL    HW1 3500   2.642   5.714   2.769  0.4285  0.1243  0.4029
 1153SOL    HW2 3501   2.614   5.592   2.855  0.0860 -1.1443 -1.4659
 1154SOL     OW 3502   2.229   5.084   2.740  0.3114 -0.0242  0.3262
 1154SOL    HW1 3503   2.265   5.163   2.780 -0.9799  0.8011 -0.0764
 1154SOL    HW2 3504   2.232   5.018   2.809  0.9955  0.4948  0.8070
 1155SOL     OW 3505   2.453   4.703   2.817  0.1150  0.2598 -0.1680
 1155SOL    HW1 3506   2.363   4.699   2.849 -0.1223 -0.6062 -0.8996
 1155SOL    HW2 3507   2.504   4.735   2.891 -0.6938  0.1394  0.4519
 1156SOL     OW 3508   1.991   1.670   2.128 -0.8013  0.5576  0.3740
 1156SOL    HW1 3509   1.930   1.606   2.091  0.5249 -0.5492 -0.0002
 1156SOL    HW2 3510   1.940   1.718   2.193 -2.0933 -0.2313 -0.0249
 1157SOL     OW 3511   2.074   1.864   2.594 -0.0608 -0.2649 -0.4263
 1157SOL    HW1 3512   1.980   1.859   2.612  0.1122  1.7500  1.4283
 1157SOL    HW2 3513   2.113   1.800   2.654 -0.1615 -0.1129 -0.1957
 1158SOL     OW 3514   2.465   6.066   2.658  0.3018  0.1662  0.4998
 1158SOL    HW1 3515   2.488   5.980   2.623  2.1017  1.0123 -0.5020
 1158SOL    HW2 3516   2.524   6.078   2.732  0.9041  1.0208 -0.1013
 1159SOL     OW 3517   4.522   2.458   0.232  0.0476 -0.5201  0.1706
 1159SOL    HW1 3518   4.567   2.455   0.317 -0.3931 -2.0637  0.3808
 1159SOL    HW2 3519   4.574   2.402   0.175  0.6703  0.9685 -0.7802
 1160SOL     OW 3520   2.640   5.029   2.451 -0.4759 -0.4427 -0.0535
 1160SOL    HW1 3521   2.643   4.981   2.368 -2.2446 -2.2647  0.8546
 1160SOL    HW2 3522   2.614   4.964   2.516 -1.4545  1.4237  1.5489
 1161SOL     OW 3523   2.630   5.192   2.056 -0.0830  0.4613 -0.0549
 1161SOL    HW1 3524   2.712   5.183   2.105 -0.9585  0.9056  1.5495
 1161SOL    HW2 3525   2.590   5.272   2.090 -1.5545 -0.1596 -0.2390
 1162SOL     OW 3526   3.197   5.012   2.355  0.2111 -0.2601 -0.8893
 1162SOL    HW1 3527   3.275   5.058   2.388  1.7270 -1.2415 -2.8426
 1162SOL    HW2 3528   3.149   4.986   2.433  2.0077  0.1213  0.4205
 1163SOL     OW 3529   3.564   5.660   2.781 -0.4841 -0.2314 -0.4473
 1163SOL    HW1 3530   3.527   5.701   2.860 -0.7272  1.8952 -1.5845
 1163SOL    HW2 3531   3.496   5.600   2.751 -0.6700 -0.5468  0.5811
 1164SOL     OW 3532   3.763   3.545  -0.002  0.2209 -0.4878 -1.0049
 1164SOL    HW1 3533   3.763   3.555   0.093 -1.1471 -3.5912 -0.5707
 1164SOL    HW2 3534   3.703   3.612  -0.033 -0.3353 -0.2874  0.4371
 1165SOL     OW 3535   3.610   4.586   2.494 -0.2470 -0.3956  0.2147
 1165SOL    HW1 3536   3.522   4.623   2.504  0.7417  2.2769 -0.1656
 1165SOL    HW2 3537   3.667   4.646   2.542  1.3089 -2.7428  1.5333
 1166SOL     OW 3538   3.088   6.065   2.632  0.5096  0.1662 -0.6176
 1166SOL    HW1 3539   3.048   6.149   2.612  0.3630  0.1432 -0.4228
 1166SOL    HW2 3540   3.030   6.000   2.593  1.2096  0.1904 -1.7657
 1167SOL     OW 3541   3.434   5.161   2.486  0.4197 -0.4906  0.6405
 1167SOL    HW1 3542   3.409   5.165   2.578  0.1016 -0.5063  0.5572
 1167SOL    HW2 3543   3.528   5.181   2.485  0.5296 -0.9853  1.0162
 1168SOL     OW 3544   2.484   5.863   2.245  0.2505 -0.3642 -0.5957
 1168SOL    HW1 3545   2.399   5.891   2.279  1.0328 -0.1847  1.3758
 1168SOL    HW2 3546   2.485   5.892   2.154 -1.1578  1.0466 -0.2018
 1169SOL     OW 3547   3.607   4.308   2.660 -0.3620 -0.2322  0.9817
 1169SOL    HW1 3548   3.689   4.275   2.623 -0.3388 -0.8130  1.5263
 1169SOL    HW2 3549   3.565   4.353   2.588 -0.6389 -1.9335  0.0187
 1170SOL     OW 3550   2.082   4.931   2.232  0.0421 -0.2356 -0.2978
 1170SOL    HW1 3551   2.008   4.888   2.189 -1.9664  0.1653  2.5072
 1170SOL    HW2 3552   2.130   4.861   2.275 -1.2060 -0.1259  1.3588
 1171SOL     OW 3553   2.981   1.707   2.174  0.3869  0.4112 -0.8322
 1171SOL    HW1 3554   2.918   1.696   2.102 -1.2345  0.8132  0.4497
 1171SOL    HW2 3555   3.019   1.620   2.186  0.6457  0.3183 -2.1048
 1172SOL     OW 3556   3.217   5.511   2.044 -0.2113  0.1002 -0.3749
 1172SOL    HW1 3557   3.128   5.476   2.051 -0.2506  0.3341  0.3980
 1172SOL    HW2 3558   3.270   5.436   2.014 -0.7426  0.0929 -1.3452
 1173SOL     OW 3559   3.256   1.826   2.232  0.3950  0.3068  0.0733
 1173SOL    HW1 3560   3.164   1.803   2.234  0.7588 -1.2764  0.0482
 1173SOL    HW2 3561   3.280   1.836   2.324  0.6708 -1.4553  0.2286
 1174SOL     OW 3562   0.937   2.878   0.056 -0.0742 -0.4466 -0.3065
 1174SOL    HW1 3563   1.021   2.902   0.095 -0.9921 -0.1577  1.6237
 1174SOL    HW2 3564   0.958   2.853  -0.034  1.9290  0.5377 -0.1597
 1175SOL     OW 3565   2.879   4.577   2.942 -0.0907 -0.1056  0.1391
 1175SOL    HW1 3566   2.926   4.603   2.863 -1.9639 -0.8643 -1.2851
 1175SOL    HW2 3567   2.793   4.547   2.911 -1.2072  0.3750  2.5370
 1176SOL     OW 3568   2.290   5.578   2.438 -0.7228 -0.3358 -0.2125
 1176SOL    HW1 3569   2.292   5.564   2.344  2.0093 -1.5530 -0.0841
 1176SOL    HW2 3570   2.268   5.493   2.475  1.5744 -0.8065  0.2466
 1177SOL     OW 3571   2.203   5.926   2.323  0.0028 -0.3094  0.3723
 1177SOL    HW1 3572   2.114   5.934   2.290  1.0532 -2.3877 -3.6402
 1177SOL    HW2 3573   2.204   5.842   2.368  0.0450 -0.5900 -0.1424
 1178SOL     OW 3574   1.998   5.101   1.721  0.0251 -0.0642  0.1057
 1178SOL    HW1 3575   2.054   5.175   1.698 -1.3014  1.0067  0.2205
 1178SOL    HW2 3576   2.050   5.052   1.785  0.8700  0.8287  0.1360
 1179SOL     OW 3577   1.790   4.282   1.955  0.5354 -0.2497  0.2330
 1179SOL    HW1 3578   1.882   4.265   1.973  1.0043 -1.1296 -2.6072
 1179SOL    HW2 3579   1.789   4.367   1.912 -0.4508  1.3800  3.1665
 1180SOL     OW 3580   3.071   5.800   2.250  0.3403  0.8821 -0.3429
 1180SOL    HW1 3581   3.014   5.786   2.326 -0.5229 -0.4254 -1.1993
 1180SOL    HW2 3582   3.143   5.739   2.263  0.8230  1.5191  0.0172
 1181SOL     OW 3583   3.615   5.979   2.918 -0.1649 -0.5301 -0.1424
 1181SOL    HW1 3584   3.532   5.950   2.882 -0.5143  1.5937 -1.1564
 1181SOL    HW2 3585   3.670   5.901   2.916 -1.4541 -1.4487 -1.4716
 1182SOL     OW 3586   3.012   4.209   2.434  0.1787  0.2635  0.1602
 1182SOL    HW1 3587   3.072   4.263   2.486 -0.6668 -0.6443  2.2155
 1182SOL    HW2 3588   3.063   4.182   2.358  0.7865  3.5085 -0.7163
 1183SOL     OW 3589   2.223   4.888   2.543  0.1687 -0.1463 -0.2429
 1183SOL    HW1 3590   2.133   4.855   2.533  0.5569 -0.8146 -1.8380
 1183SOL    HW2 3591   2.216   4.956   2.610 -1.0170 -2.0615  1.7010
 1184SOL     OW 3592   1.595   2.848   0.435 -0.4827 -0.5202  0.0967
 1184SOL    HW1 3593   1.672   2.821   0.485 -0.8778  1.1027  1.6815
 1184SOL    HW2 3594   1.523   2.842   0.498 -1.0424  1.3658 -0.3243
 1185SOL     OW 3595   2.622   5.633   2.272 -0.0195 -0.2093  0.9530
 1185SOL    HW1 3596   2.708   5.656   2.237 -1.4568 -0.9334 -3.8092
 1185SOL    HW2 3597   2.571   5.714   2.263 -0.5347 -0.5035  1.1888
 1186SOL     OW 3598   2.588   6.132   2.904 -0.1410 -0.1826  0.0629
 1186SOL    HW1 3599   2.676   6.096   2.890 -0.4233 -1.0306  0.4369
 1186SOL    HW2 3600   2.579   6.137   2.999 -0.3329  0.3411  0.0243
 1187SOL     OW 3601   0.700   2.955   0.156  0.5958  0.4446 -0.0233
 1187SOL    HW1 3602   0.779   2.909   0.129 -0.0181 -3.0796  3.2749
 1187SOL    HW2 3603   0.728   3.008   0.231  0.2960  1.4574 -0.6044
 1188SOL     OW 3604   3.155   1.423   1.955 -0.1780  0.5469 -0.0302
 1188SOL    HW1 3605   3.179   1.333   1.975 -0.6646  0.7493  1.5997
 1188SOL    HW2 3606   3.234   1.474   1.977 -0.1301  0.5932 -0.3061
 1189SOL     OW 3607   3.546   1.722   2.247  0.0524  0.5414  0.0812
 1189SOL    HW1 3608   3.536   1.664   2.322 -1.5195 -0.1113 -0.5936
 1189SOL    HW2 3609   3.574   1.805   2.284  1.8902 -0.4685  1.1197
 1190SOL     OW 3610   6.279   5.992   2.879 -0.2315 -0.3619 -0.1554
 1190SOL    HW1 3611   6.315   5.949   2.801 -0.0920  0.0380 -0.3100
 1190SOL    HW2 3612   6.347   6.052   2.908 -1.1430  1.1250 -1.0115
 1191SOL     OW 3613   2.437   4.704   2.322  0.3521  0.0053 -0.5567
 1191SOL    HW1 3614   2.512   4.732   2.374 -1.3519  1.4004  1.3012
 1191SOL    HW2 3615   2.381   4.657   2.383 -0.6352 -0.3886 -1.7170
 1192SOL     OW 3616   3.754   2.876   0.271  0.0559  0.3722 -0.2531
 1192SOL    HW1 3617   3.837   2.836   0.245  0.0620  0.3949 -0.2689
 1192SOL    HW2 3618   3.738   2.943   0.205 -0.1773  0.0983 -0.4799
 1193SOL     OW 3619   2.520   5.817   2.581 -0.1965 -0.0593 -0.4507
 1193SOL    HW1 3620   2.529   5.785   2.492 -1.5763  1.8087 -1.3415
 1193SOL    HW2 3621   2.433   5.788   2.608  0.3760 -0.9862  0.4956
 1194SOL     OW 3622   0.416   2.317   0.120  0.0269 -0.0622 -0.3663
 1194SOL    HW1 3623   0.454   2.230   0.111 -1.7718 -0.9290  0.1033
 1194SOL    HW2 3624   0.433   2.360   0.036  5.5425  1.1696  0.9878
 1195SOL     OW 3625   2.849   5.424   2.371 -0.0366  0.1231  0.3559
 1195SOL    HW1 3626   2.755   5.406   2.368 -0.3369  1.3381  1.6057
 1195SOL    HW2 3627   2.887   5.349   2.417 -0.3054 -0.6522 -0.6710
 1196SOL     OW 3628   3.318   4.700   1.899 -0.7727 -0.4734  0.3163
 1196SOL    HW1 3629   3.354   4.683   1.812 -1.4106 -0.6431  0.0768
 1196SOL    HW2 3630   3.377   4.654   1.959 -0.7262 -0.9509 -0.0872
 1197SOL     OW 3631   3.020   4.402   2.642  0.1651 -0.4158 -0.2370
 1197SOL    HW1 3632   2.951   4.338   2.624 -0.7633  0.1197  1.2361
 1197SOL    HW2 3633   3.083   4.355   2.696  0.0206 -0.3801 -0.0380
 1198SOL     OW 3634   3.338   4.608   2.394  0.6498 -0.1272 -0.9819
 1198SOL    HW1 3635   3.330   4.648   2.481  0.7808  0.2741 -1.1506
 1198SOL    HW2 3636   3.325   4.680   2.333  0.4618 -0.4278 -1.2986
 1199SOL     OW 3637   1.967   5.740   2.287  0.2445 -0.6404  0.5218
 1199SOL    HW1 3638   1.976   5.657   2.333  0.1351 -1.1997 -0.4520
 1199SOL    HW2 3639   1.994   5.721   2.197 -2.0301 -0.2015 -0.3007
 1200SOL     OW 3640   2.755   1.602   1.975  0.3518 -0.0980 -0.3670
 1200SOL    HW1 3641   2.660   1.603   1.966  0.1787  3.7314  0.2655
 1200SOL    HW2 3642   2.788   1.630   1.889  0.4361  4.1801  0.8494
 1201SOL     OW 3643   4.318   4.777   2.964 -0.3569  0.2758  0.8946
 1201SOL    HW1 3644   4.398   4.728   2.945 -0.4542  0.3633  0.2340
 1201SOL    HW2 3645   4.252   4.738   2.907 -0.2812  1.5944 -0.1635
 1202SOL     OW 3646   2.188   1.990   0.572  0.5597  0.1779  0.5055
 1202SOL    HW1 3647   2.146   1.971   0.656  1.1665  0.4526  0.8745
 1202SOL    HW2 3648   2.144   2.069   0.540  0.2931  0.0427  0.5336
 1203SOL     OW 3649   1.898   2.094   0.547 -0.2579 -0.1712  0.1925
 1203SOL    HW1 3650   1.804   2.113   0.541 -0.1495  0.4455  0.3191
 1203SOL    HW2 3651   1.928   2.092   0.456  0.2449  3.1308  0.1569
 1204SOL     OW 3652   2.511   3.371   0.838  0.0660 -0.6440 -0.3342
 1204SOL    HW1 3653   2.521   3.465   0.854  0.2089 -0.3669 -1.9450
 1204SOL    HW2 3654   2.432   3.347   0.886 -0.3893  0.4467 -0.5158
 1205SOL     OW 3655   3.363   3.578   0.890  0.2463  1.3617 -0.4038
 1205SOL    HW1 3656   3.392   3.587   0.980  1.4974 -1.0898 -0.4880
 1205SOL    HW2 3657   3.273   3.611   0.890 -0.3292 -0.0041  2.1045
 1206SOL     OW 3658   2.816   2.627   0.483 -0.6899  0.1750 -0.1331
 1206SOL    HW1 3659   2.870   2.650   0.558 -0.8128  1.2557 -0.3497
 1206SOL    HW2 3660   2.753   2.563   0.516 -1.0941  1.0388  0.8339
 1207SOL     OW 3661   3.366   2.307  -0.002 -0.1278 -0.0852 -0.2376
 1207SOL    HW1 3662   3.319   2.235   0.039  1.2739 -0.4341  0.8167
 1207SOL    HW2 3663   3.321   2.386   0.031 -0.4825 -0.4286  0.1153
 1208SOL     OW 3664   2.660   3.161   0.935  0.2514  0.2429 -0.1971
 1208SOL    HW1 3665   2.595   3.229   0.924  0.6810  0.6081 -0.5334
 1208SOL    HW2 3666   2.732   3.186   0.876  2.2661  1.7917  2.6714
 1209SOL     OW 3667   2.813   2.660   1.685 -0.2707 -0.0510 -0.3897
 1209SOL    HW1 3668   2.809   2.732   1.748  1.1168 -0.5344  0.2996
 1209SOL    HW2 3669   2.906   2.652   1.664 -0.5643 -0.7846 -1.4834
 1210SOL     OW 3670   2.310   2.967   0.707 -0.2348 -0.3727  0.6579
 1210SOL    HW1 3671   2.357   2.972   0.624 -1.3041 -1.1592 -0.0230
 1210SOL    HW2 3672   2.221   2.940   0.683 -0.2983 -1.6323  2.1298
 1211SOL     OW 3673   2.662   3.310   1.822  0.7735 -0.0185  0.0289
 1211SOL    HW1 3674   2.734   3.247   1.814  0.1867 -0.7817  0.6043
 1211SOL    HW2 3675   2.588   3.268   1.780  0.9297  1.2752 -1.6471
 1212SOL     OW 3676   2.226   3.292   0.910  0.2019 -0.3190 -0.8827
 1212SOL    HW1 3677   2.194   3.253   0.991  2.0718 -1.7330 -0.7473
 1212SOL    HW2 3678   2.163   3.266   0.844 -0.3029 -0.8275 -0.2180
 1213SOL     OW 3679   2.675   2.323   1.562  0.6435  0.1381 -0.1928
 1213SOL    HW1 3680   2.676   2.268   1.485  0.5570 -1.2544  0.7616
 1213SOL    HW2 3681   2.652   2.410   1.529  1.7190 -0.1665 -1.8609
 1214SOL     OW 3682   3.426   2.488   0.802  0.4036  0.5162  0.4230
 1214SOL    HW1 3683   3.425   2.543   0.880 -0.1956  0.5922  0.3664
 1214SOL    HW2 3684   3.384   2.407   0.830  1.1525  0.1326  0.4679
 1215SOL     OW 3685   1.873   3.415   0.093  0.0122  0.1808 -0.2532
 1215SOL    HW1 3686   1.908   3.494   0.050  0.7468  0.2803  0.5005
 1215SOL    HW2 3687   1.913   3.416   0.180 -0.8032 -0.4658  0.1364
 1216SOL     OW 3688   2.061   3.147   0.685 -0.8941 -0.3457  0.3085
 1216SOL    HW1 3689   1.990   3.145   0.750 -1.3283 -0.1942 -0.1494
 1216SOL    HW2 3690   2.033   3.083   0.619 -0.6847 -0.1600  0.0411
 1217SOL     OW 3691   2.147   2.887   1.109 -0.6897  0.4876 -0.6360
 1217SOL    HW1 3692   2.190   2.881   1.195 -0.9338 -0.3859 -0.5639
 1217SOL    HW2 3693   2.212   2.928   1.053 -0.0087 -0.1699 -0.3557
 1218SOL     OW 3694   2.517   3.987   1.418  0.1095  0.4853  0.2769
 1218SOL    HW1 3695   2.526   3.895   1.391  1.6027  0.5507  0.4569
 1218SOL    HW2 3696   2.481   3.983   1.506 -0.1565  0.0833  0.1523
 1219SOL     OW 3697   3.729   2.141   1.683 -0.2986 -0.4385  0.3841
 1219SOL    HW1 3698   3.692   2.098   1.760  2.1533 -0.5403  1.5810
 1219SOL    HW2 3699   3.752   2.229   1.713  0.9061 -0.5535 -0.1444
 1220SOL     OW 3700   1.985   2.339   0.690 -0.1093  0.4105  0.7564
 1220SOL    HW1 3701   1.952   2.257   0.653  1.5739  0.1748 -0.3217
 1220SOL    HW2 3702   2.039   2.312   0.764  1.4996  0.3873 -0.3692
 1221SOL     OW 3703   3.907   3.586   0.488 -0.1966 -0.2942  0.2295
 1221SOL    HW1 3704   3.868   3.626   0.566 -1.5074 -1.7471  0.3579
 1221SOL    HW2 3705   4.000   3.608   0.494 -0.4246  0.3741  1.7327
 1222SOL     OW 3706   3.751   5.757   2.964  0.2110  0.0746 -0.0045
 1222SOL    HW1 3707   3.750   5.663   2.980  0.6458 -0.3149 -2.0859
 1222SOL    HW2 3708   3.787   5.794   3.045  1.5839 -1.6737  0.2393
 1223SOL     OW 3709   3.250   2.682   0.610 -0.3490  0.3020 -0.3242
 1223SOL    HW1 3710   3.274   2.765   0.652 -0.3072  0.1153  0.0217
 1223SOL    HW2 3711   3.313   2.619   0.643 -1.7667 -0.3753  1.2469
 1224SOL     OW 3712   3.316   3.262   0.585 -0.3600 -0.2454 -0.0351
 1224SOL    HW1 3713   3.363   3.299   0.510  1.5312  0.5006  1.4543
 1224SOL    HW2 3714   3.370   3.189   0.615 -1.3876 -0.9029  0.2860
 1225SOL     OW 3715   2.139   2.916   1.734  0.4272 -0.2704  0.0456
 1225SOL    HW1 3716   2.136   2.917   1.639 -0.9865  0.6153  0.0675
 1225SOL    HW2 3717   2.065   2.971   1.761  1.5293  0.5221  1.6298
 1226SOL     OW 3718   2.462   3.615   0.692  0.0592 -0.2559  0.0420
 1226SOL    HW1 3719   2.516   3.638   0.616 -0.8713  0.4601 -0.4224
 1226SOL    HW2 3720   2.394   3.558   0.656 -0.2163 -0.1517  0.3935
 1227SOL     OW 3721   2.583   1.416   0.502  0.1674 -0.3048 -0.3279
 1227SOL    HW1 3722   2.673   1.451   0.499 -0.6535  2.0033  0.0638
 1227SOL    HW2 3723   2.540   1.456   0.427 -0.7952 -0.6447  0.0369
 1228SOL     OW 3724   2.346   3.008   1.262  0.1092 -0.1261 -0.0831
 1228SOL    HW1 3725   2.421   3.011   1.203  0.0065  1.6491 -0.1778
 1228SOL    HW2 3726   2.290   3.081   1.233 -1.2884 -0.9426  0.4606
 1229SOL     OW 3727   2.219   1.941   2.044  0.7007  0.2628  0.9111
 1229SOL    HW1 3728   2.139   1.993   2.053  1.2253  1.0521  1.0428
 1229SOL    HW2 3729   2.252   1.932   2.134  0.3406 -0.7570  0.9628
 1230SOL     OW 3730   3.047   3.397   0.713  0.4693 -0.2697  0.3322
 1230SOL    HW1 3731   3.071   3.478   0.758  0.2708  1.4721 -2.4388
 1230SOL    HW2 3732   3.131   3.360   0.686  0.4977  0.4149 -0.5808
 1231SOL     OW 3733   3.478   3.545   0.641  0.3722  0.3220 -0.5256
 1231SOL    HW1 3734   3.410   3.540   0.708 -0.8308 -0.1982 -1.7317
 1231SOL    HW2 3735   3.529   3.622   0.664 -0.1177  0.2533  0.8739
 1232SOL     OW 3736   3.194   2.079   0.631 -0.0077  0.4428  0.4351
 1232SOL    HW1 3737   3.138   2.016   0.675 -0.1303 -0.5458 -1.0774
 1232SOL    HW2 3738   3.184   2.159   0.683 -1.1225 -0.3049  1.4445
 1233SOL     OW 3739   2.671   2.617   0.885 -0.4797  0.0518 -0.5485
 1233SOL    HW1 3740   2.589   2.658   0.857 -1.8913 -1.4285  1.1666
 1233SOL    HW2 3741   2.645   2.530   0.915  1.6777 -0.3163  0.4203
 1234SOL     OW 3742   3.042   2.666   1.905 -0.7678 -0.3091 -0.0677
 1234SOL    HW1 3743   3.042   2.580   1.862  1.6908 -0.3172 -0.2204
 1234SOL    HW2 3744   3.065   2.647   1.996  0.2789  0.1795 -0.2076
 1235SOL     OW 3745   2.526   2.788   1.271  0.0110 -0.2850 -0.1923
 1235SOL    HW1 3746   2.575   2.867   1.248  1.5456 -0.3514  2.4387
 1235SOL    HW2 3747   2.449   2.819   1.318 -0.9552 -0.3048 -1.6954
 1236SOL     OW 3748   2.572   2.360   0.913 -0.0892  0.9077 -0.0196
 1236SOL    HW1 3749   2.486   2.322   0.898 -1.0905  2.2552  1.8583
 1236SOL    HW2 3750   2.588   2.347   1.006  1.4269  1.3291 -0.1911
 1237SOL     OW 3751   3.007   2.813   0.310 -0.0596 -0.2502  0.2092
 1237SOL    HW1 3752   3.019   2.719   0.320  1.9622 -0.0447  0.0849
 1237SOL    HW2 3753   2.956   2.839   0.387 -1.0610 -1.4785  0.0015
 1238SOL     OW 3754   2.127   2.557   1.001 -0.6542 -0.2638  0.0919
 1238SOL    HW1 3755   2.136   2.570   0.906  1.5564 -0.9148  0.1633
 1238SOL    HW2 3756   2.185   2.622   1.039 -0.5591 -0.8459  0.9563
 1239SOL     OW 3757   2.203   3.956   1.931 -0.1726 -0.7293 -0.4347
 1239SOL    HW1 3758   2.251   4.029   1.970  0.2521 -0.6271 -1.1237
 1239SOL    HW2 3759   2.256   3.879   1.952  0.0287 -0.6806 -0.7516
 1240SOL     OW 3760   2.781   2.342   0.052 -0.2368 -0.4027  0.0698
 1240SOL    HW1 3761   2.871   2.372   0.040 -0.1892 -1.0289 -1.3471
 1240SOL    HW2 3762   2.773   2.327   0.146  0.6115  1.2461  0.4423
 1241SOL     OW 3763   3.065   3.197   0.473 -0.7197 -0.0219 -0.8132
 1241SOL    HW1 3764   3.147   3.225   0.515  0.2147 -0.3305 -2.3713
 1241SOL    HW2 3765   3.021   3.279   0.451 -0.1578  0.1710 -1.2389
 1242SOL     OW 3766   2.374   1.936   1.012 -0.4666  0.2098  0.3219
 1242SOL    HW1 3767   2.401   1.991   1.085 -2.4243  1.6361  0.0365
 1242SOL    HW2 3768   2.440   1.952   0.944  0.8625 -0.4533  1.4069
 1243SOL     OW 3769   3.154   3.670   0.461 -0.3129  0.2065 -0.0048
 1243SOL    HW1 3770   3.237   3.682   0.508  0.6852 -3.0020 -0.6856
 1243SOL    HW2 3771   3.111   3.599   0.508 -0.8277 -0.8229 -1.9315
 1244SOL     OW 3772   1.738   3.735   1.054  0.2175  0.0739  0.3375
 1244SOL    HW1 3773   1.676   3.770   1.119  1.5138  0.3681  1.4654
 1244SOL    HW2 3774   1.816   3.789   1.065  0.9839 -0.8558 -0.4423
 1245SOL     OW 3775   3.609   3.373   1.041  0.0915  0.0066  0.6695
 1245SOL    HW1 3776   3.632   3.335   0.956  0.3279  3.3997 -0.9411
 1245SOL    HW2 3777   3.516   3.352   1.052  0.0852 -0.5848 -0.3566
 1246SOL     OW 3778   3.365   2.629   1.036  0.4612  0.3067 -0.3001
 1246SOL    HW1 3779   3.413   2.624   1.118 -0.4399 -0.3483  0.1982
 1246SOL    HW2 3780   3.327   2.718   1.035 -0.2567  0.0187  0.4194
 1247SOL     OW 3781   2.227   3.422   1.658 -0.6504 -0.6123 -0.1434
 1247SOL    HW1 3782   2.162   3.420   1.729 -1.2169  1.5142 -0.5530
 1247SOL    HW2 3783   2.211   3.504   1.613  0.3645 -1.4537 -2.1562
 1248SOL     OW 3784   2.498   2.188   1.381 -0.4152 -0.5526 -0.9284
 1248SOL    HW1 3785   2.417   2.239   1.378 -1.1579 -1.7354 -2.2976
 1248SOL    HW2 3786   2.469   2.098   1.395  0.7497 -0.8750 -0.4608
 1249SOL     OW 3787   2.499   3.869   1.686  0.1826  0.0692  0.5569
 1249SOL    HW1 3788   2.490   3.776   1.662  0.8358  0.1096  0.1455
 1249SOL    HW2 3789   2.553   3.868   1.765 -2.1830 -0.0852  2.3134
 1250SOL     OW 3790   2.587   4.137   0.940 -0.8037 -0.1052  0.8194
 1250SOL    HW1 3791   2.667   4.119   0.890 -1.7092 -0.8899 -0.3933
 1250SOL    HW2 3792   2.598   4.087   1.021  1.0600  1.8347  1.8800
 1251SOL     OW 3793   2.425   2.324   0.390 -0.4589 -1.1818 -0.2317
 1251SOL    HW1 3794   2.419   2.267   0.313 -0.7891  0.5870 -1.5613
 1251SOL    HW2 3795   2.340   2.369   0.393  0.0243 -0.2872  0.3997
 1252SOL     OW 3796   3.140   2.170   2.049  0.3813  0.1384 -0.0558
 1252SOL    HW1 3797   3.075   2.165   1.979  0.1252 -0.3935  0.2139
 1252SOL    HW2 3798   3.089   2.160   2.129  0.5598  1.5769  0.2644
 1253SOL     OW 3799   2.091   2.180   1.727  0.5513 -0.3232 -0.0557
 1253SOL    HW1 3800   2.116   2.094   1.695 -1.6968 -1.2718  0.5705
 1253SOL    HW2 3801   1.999   2.190   1.700  0.4616  1.4249  0.7762
 1254SOL     OW 3802   2.732   3.504   1.059  0.6468 -0.2311 -0.5438
 1254SOL    HW1 3803   2.645   3.467   1.077  1.1491 -0.2218  2.3680
 1254SOL    HW2 3804   2.725   3.538   0.970 -2.7217  0.8315 -0.0291
 1255SOL     OW 3805   3.068   2.608   1.611 -0.3154  0.3517  0.8591
 1255SOL    HW1 3806   3.066   2.513   1.621 -0.7428  0.5411  3.0473
 1255SOL    HW2 3807   3.161   2.629   1.603 -0.3076 -0.4156 -2.6519
 1256SOL     OW 3808   2.771   3.259   0.484  0.1585 -0.3906  0.4311
 1256SOL    HW1 3809   2.678   3.237   0.483 -0.0959  0.6673  0.4659
 1256SOL    HW2 3810   2.793   3.265   0.577  0.1462 -0.1635  0.4193
 1257SOL     OW 3811   3.142   2.464   1.229  0.2756  0.1526  0.7229
 1257SOL    HW1 3812   3.097   2.537   1.272  1.0264  0.1576  1.5375
 1257SOL    HW2 3813   3.232   2.469   1.262  0.8896  0.1317 -0.8441
 1258SOL     OW 3814   4.537   4.017   3.019 -0.1937  0.3945 -0.4686
 1258SOL    HW1 3815   4.466   3.975   3.067  0.7423  2.0252  2.5638
 1258SOL    HW2 3816   4.500   4.031   2.931 -2.9364 -0.4562  0.4297
 1259SOL     OW 3817   2.872   1.681   0.079 -0.5932 -1.0587 -0.5741
 1259SOL    HW1 3818   2.783   1.714   0.095 -0.7813 -1.4252 -0.8583
 1259SOL    HW2 3819   2.871   1.652  -0.012 -0.7624 -2.8878 -0.0280
 1260SOL     OW 3820   2.972   2.654   1.354 -0.6354  0.3487 -0.6311
 1260SOL    HW1 3821   2.989   2.653   1.448  0.5641  0.1780 -0.8317
 1260SOL    HW2 3822   2.885   2.616   1.345 -0.8226  0.4891  0.4200
 1261SOL     OW 3823   2.442   3.753   0.995  0.7805 -0.2471  0.0727
 1261SOL    HW1 3824   2.378   3.683   1.004 -1.4258  1.3916 -1.5413
 1261SOL    HW2 3825   2.475   3.744   0.905  1.3627  0.0703  0.2490
 1262SOL     OW 3826   2.526   3.234   0.563  0.4544 -0.1855  0.2027
 1262SOL    HW1 3827   2.485   3.319   0.550  1.4801  0.3228  0.1642
 1262SOL    HW2 3828   2.517   3.217   0.657  0.5831  0.1458  0.2763
 1263SOL     OW 3829   2.987   4.078   0.358 -0.4141 -0.1339  0.1836
 1263SOL    HW1 3830   2.904   4.121   0.373  0.2216  0.9870  0.6009
 1263SOL    HW2 3831   3.016   4.049   0.445  0.0492  0.2745  0.1680
 1264SOL     OW 3832   2.299   2.428   1.341 -0.2233 -0.0309  0.1151
 1264SOL    HW1 3833   2.376   2.461   1.294 -0.2474 -1.1782 -0.7557
 1264SOL    HW2 3834   2.247   2.507   1.358  1.0085  0.7288  0.4968
 1265SOL     OW 3835   2.633   2.026   0.930 -0.3864  0.7432 -0.5966
 1265SOL    HW1 3836   2.654   2.100   0.874 -0.2203  1.0363 -0.1589
 1265SOL    HW2 3837   2.700   2.028   0.999  0.6159 -0.8075 -1.4748
 1266SOL     OW 3838   2.669   2.020   0.643  0.4552  0.0252 -0.0895
 1266SOL    HW1 3839   2.673   1.935   0.687 -1.4001  0.0540  0.2168
 1266SOL    HW2 3840   2.642   1.999   0.554 -2.4965  0.3595  0.6024
 1267SOL     OW 3841   2.703   1.737   0.688  0.1708  0.3948  0.0810
 1267SOL    HW1 3842   2.610   1.720   0.674  0.5999  0.0708 -3.1583
 1267SOL    HW2 3843   2.724   1.688   0.768 -2.1081 -0.7673  0.0701
 1268SOL     OW 3844   2.834   3.241   0.739  0.5808  0.1301 -0.1105
 1268SOL    HW1 3845   2.904   3.298   0.709 -0.1639 -0.6159 -3.8041
 1268SOL    HW2 3846   2.879   3.171   0.787  2.4640 -0.2924 -2.3045
 1269SOL     OW 3847   3.259   2.192   1.203 -0.3557 -0.4828  0.3157
 1269SOL    HW1 3848   3.186   2.252   1.186 -0.0488 -0.5547 -1.3364
 1269SOL    HW2 3849   3.336   2.249   1.210 -0.6878 -0.2164  3.6791
 1270SOL     OW 3850   3.517   2.754   0.325 -0.1837  0.5023  0.0030
 1270SOL    HW1 3851   3.519   2.665   0.362 -2.0089  0.4936  0.1546
 1270SOL    HW2 3852   3.608   2.783   0.329  0.1617 -0.6591  1.7126
 1271SOL     OW 3853   3.785   3.247   0.804 -0.4067  0.5926 -0.2823
 1271SOL    HW1 3854   3.838   3.167   0.804 -1.6439 -0.3199  1.9202
 1271SOL    HW2 3855   3.755   3.255   0.713  0.9732 -0.5663 -0.8845
 1272SOL     OW 3856   2.420   2.105   0.187 -0.1033  0.2804 -0.3610
 1272SOL    HW1 3857   2.475   2.147   0.120 -0.1912 -1.3349 -1.4890
 1272SOL    HW2 3858   2.343   2.075   0.139 -0.2381 -0.7729  0.4943
 1273SOL     OW 3859   2.445   3.378   1.178  0.0111  0.4051 -0.2022
 1273SOL    HW1 3860   2.505   3.338   1.241  1.0356  2.1052 -0.0222
 1273SOL    HW2 3861   2.366   3.324   1.182  0.3719 -0.0514  1.8899
 1274SOL     OW 3862   3.021   3.446   1.054 -0.0840 -1.0087  0.3230
 1274SOL    HW1 3863   2.952   3.381   1.045 -0.5280 -0.5227  0.1914
 1274SOL    HW2 3864   3.016   3.498   0.974  1.5088 -1.9833 -0.4598
 1275SOL     OW 3865   3.327   3.298   1.067 -0.8010 -0.6923 -0.4240
 1275SOL    HW1 3866   3.256   3.361   1.052 -1.1156 -0.9490 -0.0344
 1275SOL    HW2 3867   3.282   3.215   1.082 -0.4650 -0.6598  0.8568
 1276SOL     OW 3868   2.795   2.078   1.137  0.4460 -0.4040 -0.0077
 1276SOL    HW1 3869   2.807   2.000   1.192  1.4181  0.5316  1.1678
 1276SOL    HW2 3870   2.881   2.094   1.098  0.9131  1.3324  1.5530
 1277SOL     OW 3871   2.875   3.134   1.756  0.4271  0.0878  0.4226
 1277SOL    HW1 3872   2.952   3.182   1.789 -0.5404  2.0881 -0.1212
 1277SOL    HW2 3873   2.886   3.132   1.661  0.6625 -1.1894  0.4596
 1278SOL     OW 3874   2.319   2.735   0.440  0.4071  0.6969  0.2711
 1278SOL    HW1 3875   2.294   2.704   0.353 -0.9138  0.3594  0.7410
 1278SOL    HW2 3876   2.321   2.830   0.432 -1.7334  0.7961  0.3355
 1279SOL     OW 3877   2.558   2.855   1.737 -0.1427 -0.0414 -0.1771
 1279SOL    HW1 3878   2.559   2.821   1.647 -0.5189  0.5464 -0.4096
 1279SOL    HW2 3879   2.649   2.849   1.766 -0.1755 -1.1179 -0.2538
 1280SOL     OW 3880   2.867   2.809   0.923  0.0667  0.0591  0.5492
 1280SOL    HW1 3881   2.926   2.797   0.849  1.1853  0.8829  1.2799
 1280SOL    HW2 3882   2.807   2.734   0.919  1.0470 -0.6998 -0.3009
 1281SOL     OW 3883   1.760   3.467   0.973  0.2656 -0.4430  0.1787
 1281SOL    HW1 3884   1.725   3.550   1.007  0.1131 -1.2200  2.0369
 1281SOL    HW2 3885   1.683   3.414   0.954  0.3694 -0.2903 -0.7127
 1282SOL     OW 3886   1.893   2.723   0.117  0.3856 -0.2838  0.0097
 1282SOL    HW1 3887   1.897   2.797   0.056 -1.3757  0.9842  1.3184
 1282SOL    HW2 3888   1.826   2.665   0.080 -1.0920  0.7571  0.9068
 1283SOL     OW 3889   2.257   2.323   1.059  0.2091 -0.6708  0.3127
 1283SOL    HW1 3890   2.228   2.413   1.040  0.2612 -1.2676 -3.2387
 1283SOL    HW2 3891   2.346   2.333   1.092  1.0442  0.5518 -2.0993
 1284SOL     OW 3892   3.052   3.651   0.846  0.0705 -0.4835  0.4649
 1284SOL    HW1 3893   3.017   3.683   0.764  0.7836  0.8069  0.6420
 1284SOL    HW2 3894   3.019   3.711   0.912 -0.7287 -1.6690  1.1871
 1285SOL     OW 3895   3.176   3.566   1.252 -0.1468 -0.2492  0.6129
 1285SOL    HW1 3896   3.138   3.618   1.323 -0.3138  0.3338  0.1131
 1285SOL    HW2 3897   3.102   3.543   1.196 -0.0444 -0.8698  0.7275
 1286SOL     OW 3898   3.155   2.570   0.375 -0.5654 -0.8296  0.3437
 1286SOL    HW1 3899   3.117   2.491   0.413 -1.2967 -0.7751 -0.2517
 1286SOL    HW2 3900   3.170   2.628   0.449 -2.2566 -0.5954  0.5346
 1287SOL     OW 3901   2.158   3.408   1.385 -0.0494  0.2486 -0.2019
 1287SOL    HW1 3902   2.083   3.467   1.383  0.1615  0.5866  1.1442
 1287SOL    HW2 3903   2.234   3.465   1.389  0.3348 -0.0863 -1.9501
 1288SOL     OW 3904   2.520   2.546   1.818 -0.5072 -0.0045 -0.0374
 1288SOL    HW1 3905   2.516   2.607   1.745  1.9213  0.0386 -0.2107
 1288SOL    HW2 3906   2.444   2.489   1.806  0.4464 -0.7814 -3.3504
 1289SOL     OW 3907   2.774   2.006   1.919 -0.2724 -0.2274  0.5079
 1289SOL    HW1 3908   2.682   2.023   1.898 -0.0614  1.1027  0.6040
 1289SOL    HW2 3909   2.774   1.992   2.014 -0.1739  1.4729  0.7954
 1290SOL     OW 3910   2.456   1.925   1.502  0.0206 -0.2315  0.3240
 1290SOL    HW1 3911   2.542   1.884   1.489  0.4869  0.2218  1.7440
 1290SOL    HW2 3912   2.431   1.899   1.591 -0.4665  1.1187  0.6045
 1291SOL     OW 3913   2.381   3.007   0.965 -0.2550  0.0016  0.0884
 1291SOL    HW1 3914   2.367   3.020   0.871  0.9765  0.5822 -0.0349
 1291SOL    HW2 3915   2.465   2.962   0.970 -0.7312 -0.8325  0.8932
 1292SOL     OW 3916   3.160   3.062   1.050  0.0571 -0.1669  0.4517
 1292SOL    HW1 3917   3.138   2.981   1.096  0.5911 -0.1411  0.7609
 1292SOL    HW2 3918   3.079   3.088   1.007 -0.2330 -0.6325  0.7100
 1293SOL     OW 3919   2.135   1.885   0.915  0.7445 -0.4631 -0.0450
 1293SOL    HW1 3920   2.223   1.889   0.953  1.0648  0.1549 -0.8349
 1293SOL    HW2 3921   2.076   1.898   0.990  1.3704  0.6686  0.2673
 1294SOL     OW 3922   1.803   3.276   1.437 -0.9069 -0.3680 -0.4305
 1294SOL    HW1 3923   1.838   3.297   1.523 -0.0001  0.1981 -0.9331
 1294SOL    HW2 3924   1.806   3.358   1.388  1.7510 -1.3356 -2.0925
 1295SOL     OW 3925   2.438   2.760   0.839  0.7294  0.5216 -0.2570
 1295SOL    HW1 3926   2.384   2.839   0.841 -0.7388 -0.4565  2.0379
 1295SOL    HW2 3927   2.407   2.712   0.762 -0.9567  0.5027  0.3955
 1296SOL     OW 3928   2.446   2.050   0.469  0.4421  0.0978  0.3096
 1296SOL    HW1 3929   2.443   2.050   0.374  1.1463 -2.2186  0.2274
 1296SOL    HW2 3930   2.357   2.075   0.496 -0.2828 -0.9696 -0.9934
 1297SOL     OW 3931   2.914   3.085   0.974 -0.0590 -0.1959  0.4122
 1297SOL    HW1 3932   2.841   3.116   1.028  0.2248 -1.2756  1.4486
 1297SOL    HW2 3933   2.891   2.993   0.955  2.6250 -1.7281  3.6968
 1298SOL     OW 3934   3.741   3.189   1.959 -0.4099  0.1056 -0.2573
 1298SOL    HW1 3935   3.805   3.147   1.903 -0.2256  0.5099 -0.3580
 1298SOL    HW2 3936   3.716   3.268   1.911 -0.4381  0.3223  0.1113
 1299SOL     OW 3937   2.563   2.657   2.059 -0.3180 -0.1082 -0.0180
 1299SOL    HW1 3938   2.543   2.613   1.976  1.5832 -1.2573  0.0620
 1299SOL    HW2 3939   2.655   2.682   2.050 -0.9329  2.6649  0.5211
 1300SOL     OW 3940   2.723   3.584   0.802 -0.1178 -0.0656 -0.2428
 1300SOL    HW1 3941   2.640   3.587   0.755  0.0109  1.4664 -0.3951
 1300SOL    HW2 3942   2.789   3.582   0.734  0.0278  0.7525 -0.1273
 1301SOL     OW 3943   2.084   2.605   0.745 -0.0249 -0.0658 -0.2505
 1301SOL    HW1 3944   2.042   2.520   0.730  1.4166 -0.7056 -0.9589
 1301SOL    HW2 3945   2.177   2.588   0.729  0.2347  1.7955 -0.9375
 1302SOL     OW 3946   2.409   2.600   1.091  0.2723 -0.6133 -0.9588
 1302SOL    HW1 3947   2.401   2.649   1.009 -1.7956  1.4478  0.3356
 1302SOL    HW2 3948   2.447   2.663   1.152  1.0448 -1.8605 -0.1173
 1303SOL     OW 3949   2.695   2.567   1.283  0.2496  0.6423 -0.3664
 1303SOL    HW1 3950   2.627   2.502   1.265 -0.7907  1.9056 -1.2083
 1303SOL    HW2 3951   2.659   2.649   1.248  2.3394  1.2920 -1.1388
 1304SOL     OW 3952   2.839   2.390   1.744  0.0205  0.0907 -0.0500
 1304SOL    HW1 3953   2.833   2.485   1.733 -0.2710  0.0394 -0.3412
 1304SOL    HW2 3954   2.767   2.355   1.691 -1.4452 -0.1819  1.9990
 1305SOL     OW 3955   1.802   3.076   0.524  0.3908  0.2244 -0.1247
 1305SOL    HW1 3956   1.764   3.132   0.457  0.8839 -0.6000 -1.1301
 1305SOL    HW2 3957   1.756   3.099   0.605  0.2079  1.6672 -0.6146
 1306SOL     OW 3958   2.098   3.609   0.649  0.2240  0.4930 -0.0122
 1306SOL    HW1 3959   2.005   3.596   0.633  0.0710  0.3616  0.9183
 1306SOL    HW2 3960   2.102   3.693   0.696  0.7772  1.5786 -1.8776
 1307SOL     OW 3961   2.305   3.537   1.023 -0.5390 -0.2501 -0.5610
 1307SOL    HW1 3962   2.371   3.502   1.084 -1.9203 -1.0850  0.5161
 1307SOL    HW2 3963   2.252   3.461   1.000 -2.4057  0.7440  0.2638
 1308SOL     OW 3964   3.038   2.833   1.122 -0.0834 -0.0644  0.3095
 1308SOL    HW1 3965   2.962   2.819   1.065  0.4748  0.8141 -0.6864
 1308SOL    HW2 3966   3.027   2.768   1.192 -1.1909 -0.6594 -0.3725
 1309SOL     OW 3967   1.806   2.211   1.089 -0.2026 -0.2629  0.2979
 1309SOL    HW1 3968   1.770   2.295   1.060  0.5692  0.6730  1.9533
 1309SOL    HW2 3969   1.744   2.145   1.056 -1.7789  1.0740  0.4945
 1310SOL     OW 3970   2.329   2.848   1.910 -0.1050 -0.2695 -0.4997
 1310SOL    HW1 3971   2.391   2.847   1.837 -1.6306  0.0006 -1.8726
 1310SOL    HW2 3972   2.244   2.863   1.868 -0.9759  0.3776  1.4028
 1311SOL     OW 3973   2.627   2.420   0.548  0.0142  0.1918 -0.0779
 1311SOL    HW1 3974   2.591   2.411   0.636  2.3648 -1.3414  0.8213
 1311SOL    HW2 3975   2.558   2.389   0.490 -0.6991 -1.1330  1.4189
 1312SOL     OW 3976   3.397   2.601   1.338 -0.2224 -0.4822 -0.1278
 1312SOL    HW1 3977   3.464   2.669   1.331  1.1070 -1.7216  0.0552
 1312SOL    HW2 3978   3.441   2.521   1.308 -1.8298 -1.2172 -0.6290
 1313SOL     OW 3979   1.847   3.424   1.693  1.1852 -0.0085  0.0765
 1313SOL    HW1 3980   1.913   3.421   1.762  0.5106 -0.4599  0.7168
 1313SOL    HW2 3981   1.827   3.517   1.682 -0.1448 -0.0293  1.9100
 1314SOL     OW 3982   2.123   2.169   0.859  0.0364 -0.4268 -0.4660
 1314SOL    HW1 3983   2.110   2.084   0.902 -0.5618 -1.2669 -2.2107
 1314SOL    HW2 3984   2.187   2.214   0.914 -1.9125 -0.7168  2.2368
 1315SOL     OW 3985   2.532   3.744   1.279  0.2460  0.2405 -0.1103
 1315SOL    HW1 3986   2.508   3.769   1.190 -0.3023 -0.9543 -0.3097
 1315SOL    HW2 3987   2.625   3.719   1.272  0.2072  0.1578 -0.3526
 1316SOL     OW 3988   2.053   3.400   1.869  0.1080  0.3128  0.8973
 1316SOL    HW1 3989   2.051   3.454   1.948  1.1833 -0.0593  1.1985
 1316SOL    HW2 3990   2.012   3.318   1.895  0.8026  0.0518  1.1859
 1317SOL     OW 3991   3.827   3.381   1.227 -0.1670 -0.4190  0.2652
 1317SOL    HW1 3992   3.766   3.370   1.154 -0.7575 -1.8786  0.9264
 1317SOL    HW2 3993   3.909   3.408   1.186 -1.3682  2.1875 -0.5982
 1318SOL     OW 3994   3.216   3.950   1.030 -0.2552 -0.1272  0.4266
 1318SOL    HW1 3995   3.294   4.000   1.007  0.8694 -1.7242  0.5830
 1318SOL    HW2 3996   3.250   3.866   1.062 -1.9955 -0.4084  1.6936
 1319SOL     OW 3997   1.909   3.140   1.216  0.1370 -0.4152  0.0785
 1319SOL    HW1 3998   1.877   3.194   1.289  1.0115 -0.0189  0.1746
 1319SOL    HW2 3999   1.868   3.055   1.231  1.4975 -0.8209  1.9295
 1320SOL     OW 4000   2.502   3.502   1.584 -0.1935 -0.0334 -0.4694
 1320SOL    HW1 4001   2.437   3.456   1.636 -1.3323  0.7671 -1.1453
 1320SOL    HW2 4002   2.576   3.515   1.643 -1.1366  0.1484  0.6893
 1321SOL     OW 4003   3.326   3.818   0.719  0.3464 -0.4800 -0.0714
 1321SOL    HW1 4004   3.397   3.820   0.655  1.0583 -0.1530  0.7154
 1321SOL    HW2 4005   3.352   3.751   0.782 -0.5138 -1.0421 -0.2939
 1322SOL     OW 4006   2.017   3.748   2.281 -0.1484 -0.2495 -0.0260
 1322SOL    HW1 4007   1.979   3.683   2.341 -1.2628  1.4820  1.2371
 1322SOL    HW2 4008   2.078   3.797   2.336  0.0137  0.3461 -0.7303
 1323SOL     OW 4009   3.009   2.777   0.699 -0.7497 -0.0637  0.3474
 1323SOL    HW1 4010   3.096   2.743   0.678 -1.5585 -1.3738 -1.1460
 1323SOL    HW2 4011   2.989   2.839   0.629 -0.7817  0.6603  0.9984
 1324SOL     OW 4012   2.625   3.259   1.384 -0.1028 -0.0472  0.2896
 1324SOL    HW1 4013   2.716   3.247   1.411  0.1695  0.1738 -0.4895
 1324SOL    HW2 4014   2.588   3.319   1.448 -0.3466 -1.8095  1.9123
 1325SOL     OW 4015   3.232   2.279   0.857 -0.4476 -0.0097  0.0793
 1325SOL    HW1 4016   3.167   2.226   0.904  0.5883 -1.5080 -0.1001
 1325SOL    HW2 4017   3.200   2.368   0.864 -2.1294 -0.6227  0.6411
 1326SOL     OW 4018   2.407   2.251   0.682 -0.1122  0.6666 -0.0113
 1326SOL    HW1 4019   2.425   2.243   0.589  0.1204  0.3795  0.0581
 1326SOL    HW2 4020   2.405   2.160   0.714  0.2030  0.7815  0.3367
 1327SOL     OW 4021   2.618   3.049   1.173 -0.1831  0.0042  0.2166
 1327SOL    HW1 4022   2.619   3.120   1.238 -1.4447 -1.1567  1.5561
 1327SOL    HW2 4023   2.657   3.089   1.095  2.3125  1.1949  1.9121
 1328SOL     OW 4024   2.182   3.211   1.192 -0.4471 -0.1937  0.2239
 1328SOL    HW1 4025   2.186   3.271   1.266 -1.6903  0.4920 -0.2494
 1328SOL    HW2 4026   2.095   3.171   1.197  0.1691 -1.5742  0.2327
 1329SOL     OW 4027   2.651   2.987   0.324 -0.2897 -0.1523 -0.0763
 1329SOL    HW1 4028   2.683   2.921   0.263  0.0215  1.0293 -1.2312
 1329SOL    HW2 4029   2.725   3.046   0.336 -1.2695  1.2859 -0.8963
 1330SOL     OW 4030   3.007   1.882   0.766 -0.4679  0.0183  0.5522
 1330SOL    HW1 4031   2.920   1.905   0.733 -0.0844  1.1376  0.2685
 1330SOL    HW2 4032   3.012   1.787   0.754 -2.4470 -0.4257  2.5599
 1331SOL     OW 4033   2.277   3.368   0.602  0.6138  0.5673 -0.2271
 1331SOL    HW1 4034   2.224   3.446   0.619  0.4652  0.1624  1.2917
 1331SOL    HW2 4035   2.231   3.297   0.648  0.5318 -0.5243 -1.8840
 1332SOL     OW 4036   3.343   2.656   1.612 -0.3560  0.0791  0.1491
 1332SOL    HW1 4037   3.369   2.664   1.520 -0.5412 -2.3936 -0.1742
 1332SOL    HW2 4038   3.419   2.690   1.660  0.8156 -0.9153 -0.9022
 1333SOL     OW 4039   2.035   3.062   0.349  0.0175 -0.1683  0.6454
 1333SOL    HW1 4040   2.001   3.125   0.285  0.7510 -1.1262 -0.7626
 1333SOL    HW2 4041   1.962   3.048   0.410 -0.9548  0.3057 -0.3547
 1334SOL     OW 4042   2.500   2.923   2.109  0.0987 -0.1920  0.4345
 1334SOL    HW1 4043   2.425   2.935   2.050 -0.0411 -0.6411  0.5165
 1334SOL    HW2 4044   2.516   2.828   2.107  0.9755 -0.0425  0.0321
 1335SOL     OW 4045   2.615   2.302   1.164  0.0251  0.0556  0.1288
 1335SOL    HW1 4046   2.588   2.263   1.247  1.1883  2.6041  1.8716
 1335SOL    HW2 4047   2.703   2.266   1.148  0.0177 -0.0450  0.3143
 1336SOL     OW 4048   3.780   4.479   3.038 -0.0808 -0.0142  0.4873
 1336SOL    HW1 4049   3.708   4.416   3.039  1.4644 -1.8750  1.6777
 1336SOL    HW2 4050   3.854   4.432   3.075  2.0431  1.5412 -1.4817
 1337SOL     OW 4051   3.422   2.959   1.041  0.1249  0.0185 -0.4409
 1337SOL    HW1 4052   3.341   3.007   1.022 -0.4677 -1.4746 -1.8612
 1337SOL    HW2 4053   3.475   3.022   1.090 -1.1277  1.6766 -1.0956
 1338SOL     OW 4054   1.880   2.038   0.003 -0.0422 -0.3107  0.3988
 1338SOL    HW1 4055   1.923   2.106  -0.049  0.5698 -0.2764  0.9426
 1338SOL    HW2 4056   1.842   1.979  -0.063  0.2559  0.0277 -0.0867
 1339SOL     OW 4057   2.591   2.657   1.539  0.0016 -0.3988  0.0479
 1339SOL    HW1 4058   2.607   2.667   1.445 -0.7690 -1.4666 -0.2108
 1339SOL    HW2 4059   2.678   2.644   1.577  0.1453 -2.4768 -0.8631
 1340SOL     OW 4060   3.670   3.683   0.930 -0.2379  0.3577 -0.2665
 1340SOL    HW1 4061   3.658   3.665   1.023  0.6435  0.3795 -0.1422
 1340SOL    HW2 4062   3.581   3.695   0.896 -0.5466  0.7422  0.6484
 1341SOL     OW 4063   2.078   2.343   1.949 -0.0770 -0.1232 -0.3238
 1341SOL    HW1 4064   2.162   2.358   1.992 -0.2360 -1.4319  0.5281
 1341SOL    HW2 4065   2.101   2.314   1.861  0.2892  1.5026 -0.7883
 1342SOL     OW 4066   3.372   3.145   1.887  0.2823  0.0078 -0.1139
 1342SOL    HW1 4067   3.302   3.081   1.873 -0.6402  0.6570  1.3081
 1342SOL    HW2 4068   3.356   3.212   1.821  2.0952 -1.7939 -2.5836
 1343SOL     OW 4069   2.005   3.658   1.440  0.0547  0.1123 -0.1876
 1343SOL    HW1 4070   2.061   3.686   1.512  0.3872  0.4271 -0.5625
 1343SOL    HW2 4071   1.947   3.732   1.424  0.4282  0.3059 -0.6793
 1344SOL     OW 4072   3.556   2.801   1.267  0.2077  0.6069 -0.2590
 1344SOL    HW1 4073   3.635   2.769   1.223  0.6297  0.2584  0.7165
 1344SOL    HW2 4074   3.560   2.896   1.258  1.1040  0.6423  0.3553
 1345SOL     OW 4075   3.052   2.374   0.559 -0.0684  0.4749 -0.1206
 1345SOL    HW1 4076   3.004   2.426   0.623 -1.5770 -2.0996  1.0161
 1345SOL    HW2 4077   2.994   2.301   0.539  2.4262 -1.5470 -0.5305
 1346SOL     OW 4078   2.343   2.570   0.656 -0.0131 -0.3448 -0.4884
 1346SOL    HW1 4079   2.332   2.622   0.576 -1.8487 -1.7647 -1.2112
 1346SOL    HW2 4080   2.356   2.481   0.625  1.0205 -0.6743  0.7950
 1347SOL     OW 4081   3.447   2.383   1.657  0.4485 -0.2074  0.0564
 1347SOL    HW1 4082   3.436   2.477   1.642  2.8059  0.1150 -0.0440
 1347SOL    HW2 4083   3.382   2.341   1.600  0.1552  1.3318 -0.7850
 1348SOL     OW 4084   2.283   3.930   0.621 -0.0225 -0.0234 -0.0704
 1348SOL    HW1 4085   2.199   3.910   0.662 -0.6842  1.3942 -0.6679
 1348SOL    HW2 4086   2.343   3.865   0.657 -1.4080 -1.2042  0.2132
 1349SOL     OW 4087   2.920   2.987   0.550  0.3962 -0.3300  0.2821
 1349SOL    HW1 4088   2.844   3.042   0.569 -0.2467 -0.1909 -2.2724
 1349SOL    HW2 4089   2.985   3.047   0.513  1.0855 -0.7357  0.8104
 1350SOL     OW 4090   4.738   5.195   3.049 -0.4026 -0.2392  0.5882
 1350SOL    HW1 4091   4.809   5.155   3.000  1.1864  0.5246  2.1537
 1350SOL    HW2 4092   4.702   5.124   3.103  0.9336 -0.1233  1.7018
 1351SOL     OW 4093   3.529   3.421   0.392  0.2709  0.4456 -0.3030
 1351SOL    HW1 4094   3.526   3.469   0.475  0.1897 -0.0311 -0.0212
 1351SOL    HW2 4095   3.605   3.363   0.401  0.7461  0.9557 -0.8900
 1352SOL     OW 4096   2.285   3.387   2.061 -0.0999  0.4304  0.1588
 1352SOL    HW1 4097   2.201   3.403   2.104  0.1814  0.7677  0.5957
 1352SOL    HW2 4098   2.270   3.410   1.970 -0.6056  0.0536  0.1412
 1353SOL     OW 4099   2.042   2.829   0.621  0.1587 -0.4646 -0.1031
 1353SOL    HW1 4100   2.059   2.752   0.676 -2.3763  0.1523  1.7248
 1353SOL    HW2 4101   2.034   2.794   0.532  0.3733 -2.0924  0.4799
 1354SOL     OW 4102   2.200   3.152   1.601  0.1936 -0.5608  0.3565
 1354SOL    HW1 4103   2.193   3.247   1.598  0.6827 -0.5406 -0.1828
 1354SOL    HW2 4104   2.137   3.121   1.536 -0.0117 -0.6120  0.5772
 1355SOL     OW 4105   3.412   2.091   1.672  0.0431 -0.2098  0.1317
 1355SOL    HW1 4106   3.445   2.180   1.656 -1.9113  1.0574  2.4874
 1355SOL    HW2 4107   3.469   2.056   1.740  0.0915 -0.3131  0.0389
 1356SOL     OW 4108   4.235   4.406   2.996  0.2071 -0.3183  0.2295
 1356SOL    HW1 4109   4.330   4.393   2.988  0.1679  0.0196 -1.0827
 1356SOL    HW2 4110   4.225   4.467   3.069  1.0630  0.2434 -0.1136
 1357SOL     OW 4111   3.362   3.729   1.113 -0.0055  0.5685 -0.7240
 1357SOL    HW1 4112   3.450   3.715   1.146 -0.2863  1.5481  0.5395
 1357SOL    HW2 4113   3.306   3.674   1.168 -0.2066 -0.0504 -1.5165
 1358SOL     OW 4114   2.157   2.913   1.456 -0.4274  0.4702  0.1763
 1358SOL    HW1 4115   2.236   2.955   1.421  0.5396 -0.1195  1.5549
 1358SOL    HW2 4116   2.173   2.819   1.444  0.1003  0.2163  2.3896
 1359SOL     OW 4117   2.368   3.523   0.275 -0.3434 -0.4618  0.1023
 1359SOL    HW1 4118   2.410   3.444   0.241  0.2588  0.1384 -0.5795
 1359SOL    HW2 4119   2.426   3.553   0.345  1.8339  1.7629 -2.4527
 1360SOL     OW 4120   3.167   2.305   1.590 -0.2127  0.1561 -0.3654
 1360SOL    HW1 4121   3.120   2.262   1.662  1.4695  0.1116  0.7494
 1360SOL    HW2 4122   3.150   2.248   1.514 -1.8020  0.0649  0.0294
 1361SOL     OW 4123   3.203   1.881   1.113 -0.3588  0.0440 -0.4485
 1361SOL    HW1 4124   3.119   1.835   1.112 -0.2303 -0.2166 -2.0230
 1361SOL    HW2 4125   3.214   1.907   1.204 -3.4118  2.4361 -0.5838
 1362SOL     OW 4126   2.436   2.990   0.471 -0.2158  0.4287  0.3394
 1362SOL    HW1 4127   2.456   3.079   0.500  0.0241  0.6053 -0.3549
 1362SOL    HW2 4128   2.508   2.966   0.413 -1.9897  1.1419 -2.3461
 1363SOL     OW 4129   2.338   3.587   1.392  0.0666  0.1353  0.3730
 1363SOL    HW1 4130   2.388   3.660   1.354  0.8125 -0.4214  0.2531
 1363SOL    HW2 4131   2.395   3.551   1.460 -0.6129  0.1335  0.9564
 1364SOL     OW 4132   3.112   2.525   0.935  0.0803 -0.6899  0.0199
 1364SOL    HW1 4133   3.162   2.606   0.926 -0.6488 -0.2411 -0.0114
 1364SOL    HW2 4134   3.098   2.516   1.029 -2.9262  1.1481 -0.1443
 1365SOL     OW 4135   3.218   1.423   0.592 -0.7521  0.0390  0.2539
 1365SOL    HW1 4136   3.226   1.335   0.628  1.0697 -0.9580 -2.2787
 1365SOL    HW2 4137   3.199   1.410   0.499 -0.4181  2.3145 -0.2080
 1366SOL     OW 4138   2.014   2.747   0.365 -0.2175 -0.3996  0.6051
 1366SOL    HW1 4139   1.966   2.739   0.283  0.1101  0.3113  0.3412
 1366SOL    HW2 4140   2.082   2.679   0.360  1.5303  1.3474 -0.9315
 1367SOL     OW 4141   2.214   2.645   2.089 -0.2151  0.0781  0.3350
 1367SOL    HW1 4142   2.275   2.585   2.131  0.7907  0.6614 -0.2619
 1367SOL    HW2 4143   2.267   2.694   2.027 -1.0596  1.4180  0.6269
 1368SOL     OW 4144   2.222   2.282   2.758  0.1539  0.9101 -0.2080
 1368SOL    HW1 4145   2.265   2.350   2.809 -0.8183 -0.0484  2.0436
 1368SOL    HW2 4146   2.255   2.200   2.795 -1.0127  0.1713 -0.7520
 1369SOL     OW 4147   5.899   2.299   2.307  0.1857  0.1092  0.2800
 1369SOL    HW1 4148   5.880   2.257   2.223 -0.0064  0.3559  0.1992
 1369SOL    HW2 4149   5.918   2.390   2.284 -0.1307  0.2365  0.5363
 1370SOL     OW 4150   2.511   2.713   2.858  0.3047  0.1943  0.0463
 1370SOL    HW1 4151   2.432   2.711   2.912  0.7379  1.8968  0.7921
 1370SOL    HW2 4152   2.506   2.795   2.810  1.6811  0.4082  0.2114
 1371SOL     OW 4153   3.215   3.538   2.345 -0.3831  0.2012 -0.1926
 1371SOL    HW1 4154   3.248   3.453   2.317 -0.0138 -0.3759  1.8084
 1371SOL    HW2 4155   3.125   3.522   2.373 -0.6510  0.6867 -0.7571
 1372SOL     OW 4156   2.823   2.897   2.368 -0.2178  0.0075  0.1350
 1372SOL    HW1 4157   2.790   2.987   2.378 -1.6707 -0.3128 -1.3635
 1372SOL    HW2 4158   2.773   2.846   2.431  0.1587  0.1400  0.5445
 1373SOL     OW 4159   3.779   2.585   2.034  0.0910 -0.7560  0.2317
 1373SOL    HW1 4160   3.809   2.672   2.060 -0.7183 -0.2389 -0.5215
 1373SOL    HW2 4161   3.810   2.528   2.104 -0.5145  0.3343  1.4417
 1374SOL     OW 4162   2.613   2.449   2.774 -0.1151 -0.3611 -0.5210
 1374SOL    HW1 4163   2.564   2.379   2.817 -0.7397  0.2588 -0.1992
 1374SOL    HW2 4164   2.579   2.530   2.813 -1.5640  0.3165 -2.9538
 1375SOL     OW 4165   2.817   2.607   2.656 -0.4540 -0.2300  0.1963
 1375SOL    HW1 4166   2.894   2.560   2.687  0.0274  0.3861 -0.0301
 1375SOL    HW2 4167   2.745   2.546   2.667  0.4023 -1.7123 -1.7402
 1376SOL     OW 4168   2.389   2.965   2.765 -0.6229 -0.0328 -0.2638
 1376SOL    HW1 4169   2.341   3.048   2.764  1.2373  1.1213 -0.5821
 1376SOL    HW2 4170   2.469   2.984   2.717  0.0838 -1.8942  0.1007
 1377SOL     OW 4171   3.646   2.015   2.867  0.4927  0.2711  0.9935
 1377SOL    HW1 4172   3.635   1.990   2.959  0.2218 -4.1204  0.0110
 1377SOL    HW2 4173   3.718   2.077   2.867  1.4344 -0.6549  4.0748
 1378SOL     OW 4174   2.062   3.547   2.703  0.1992  0.0811  0.2735
 1378SOL    HW1 4175   2.134   3.517   2.758  1.2239  0.8534 -0.5810
 1378SOL    HW2 4176   2.095   3.627   2.662 -0.4745 -0.4891 -1.5097
 1379SOL     OW 4177   2.617   3.393   2.650 -0.0322  0.5407  0.6845
 1379SOL    HW1 4178   2.577   3.370   2.566  0.0251  0.5019  0.6679
 1379SOL    HW2 4179   2.587   3.325   2.710  3.6836 -2.3456 -0.2935
 1380SOL     OW 4180   2.146   2.998   3.000  0.0718  0.4898  0.4637
 1380SOL    HW1 4181   2.234   2.963   3.013 -0.6221 -1.1202  1.2699
 1380SOL    HW2 4182   2.113   3.014   3.089 -1.1854 -1.0522  0.3402
 1381SOL     OW 4183   2.493   3.335   2.410  0.0779 -0.1179 -0.1130
 1381SOL    HW1 4184   2.402   3.350   2.435 -0.0451 -0.1751 -0.5157
 1381SOL    HW2 4185   2.503   3.381   2.327  0.8141  1.0611  0.6060
 1382SOL     OW 4186   1.561   3.952   0.434 -0.0752  0.6832 -0.1565
 1382SOL    HW1 4187   1.487   3.943   0.374  0.5561  0.5061 -0.9272
 1382SOL    HW2 4188   1.632   3.904   0.391  0.2725  0.1849  0.9478
 1383SOL     OW 4189   1.875   2.484   2.599 -0.2411 -0.4097 -0.0193
 1383SOL    HW1 4190   1.884   2.495   2.504  1.0109 -0.7274  0.0433
 1383SOL    HW2 4191   1.821   2.405   2.609  0.2542 -0.8157 -0.4771
 1384SOL     OW 4192   3.325   3.299   2.277 -0.2409  0.8455  0.3388
 1384SOL    HW1 4193   3.336   3.204   2.273  0.2672  0.8066  2.1900
 1384SOL    HW2 4194   3.374   3.331   2.201 -0.9559 -0.3738 -0.6981
 1385SOL     OW 4195   2.141   3.712   1.665 -0.2183 -0.2389  0.0721
 1385SOL    HW1 4196   2.048   3.710   1.690 -0.7394 -2.6319 -1.7496
 1385SOL    HW2 4197   2.185   3.744   1.744 -2.4682  0.0676  1.3185
 1386SOL     OW 4198   3.527   2.735   2.247  0.0266 -0.3629  0.8421
 1386SOL    HW1 4199   3.514   2.642   2.230  0.4968 -0.1766 -0.6610
 1386SOL    HW2 4200   3.465   2.779   2.188  4.1527  0.4285 -3.5078
 1387SOL     OW 4201   3.564   3.110   2.493 -0.1369  0.1534  0.7097
 1387SOL    HW1 4202   3.492   3.110   2.429 -0.5349 -1.2424  1.1289
 1387SOL    HW2 4203   3.639   3.077   2.444 -0.4563 -0.9724  0.9617
 1388SOL     OW 4204   2.566   3.345   2.095  0.5780  0.1820  0.0203
 1388SOL    HW1 4205   2.579   3.350   2.000  1.4621  1.9168  0.1982
 1388SOL    HW2 4206   2.473   3.363   2.107  0.2501 -0.9965 -0.5524
 1389SOL     OW 4207   2.843   1.952   2.590  0.7865 -0.4700  0.3034
 1389SOL    HW1 4208   2.855   2.034   2.542  0.6503  1.1208  2.7893
 1389SOL    HW2 4209   2.774   1.906   2.543 -0.0149  1.4293 -0.4671
 1390SOL     OW 4210   4.536   0.901   0.494  0.3276  0.4814 -0.1558
 1390SOL    HW1 4211   4.590   0.929   0.567 -0.3277 -0.3209  0.6635
 1390SOL    HW2 4212   4.460   0.959   0.496  0.7724  1.1028 -0.8260
 1391SOL     OW 4213   3.165   2.944   1.905 -0.2116  0.7317 -0.3531
 1391SOL    HW1 4214   3.121   2.867   1.869 -0.9443  1.4957 -1.1516
 1391SOL    HW2 4215   3.095   3.007   1.920  0.3713  1.2276  0.3418
 1392SOL     OW 4216   2.999   2.927   2.888  0.6755  0.4908 -0.7152
 1392SOL    HW1 4217   2.996   2.969   2.974  1.6989  4.6930 -2.4783
 1392SOL    HW2 4218   3.040   2.842   2.905 -1.0407  0.1882  3.1340
 1393SOL     OW 4219   3.448   3.680   2.214  0.4319  0.1436  0.0466
 1393SOL    HW1 4220   3.505   3.629   2.272  0.7988  0.4534 -0.0450
 1393SOL    HW2 4221   3.360   3.647   2.234  0.8057 -2.0743 -1.5148
 1394SOL     OW 4222   2.670   2.381   1.994  0.3505 -0.2102 -0.2123
 1394SOL    HW1 4223   2.757   2.374   1.956  0.2976  0.5817 -0.4871
 1394SOL    HW2 4224   2.620   2.433   1.931  0.1819  0.8913  0.8119
 1395SOL     OW 4225   3.195   2.211   2.625 -0.0743  0.1785  0.0753
 1395SOL    HW1 4226   3.277   2.193   2.671  0.1596 -1.8457 -1.0293
 1395SOL    HW2 4227   3.132   2.151   2.665 -0.1088 -0.8820 -1.5248
 1396SOL     OW 4228   3.018   3.571   1.997 -0.3164 -0.1063  0.1864
 1396SOL    HW1 4229   3.098   3.613   2.029 -0.2434 -0.1209  0.0243
 1396SOL    HW2 4230   2.947   3.629   2.024 -0.4010 -0.8696  1.7331
 1397SOL     OW 4231   2.597   2.735   2.430 -0.8520  0.0404 -0.7049
 1397SOL    HW1 4232   2.569   2.767   2.345 -0.6369 -2.8453 -1.9796
 1397SOL    HW2 4233   2.518   2.737   2.484 -1.2385  0.9177 -1.2819
 1398SOL     OW 4234   6.313   2.767   2.935  0.3133 -0.1654 -0.3422
 1398SOL    HW1 4235   6.368   2.721   2.872  1.7894  1.4380 -0.3067
 1398SOL    HW2 4236   6.356   2.852   2.947 -1.0966  0.3905  1.2166
 1399SOL     OW 4237   2.884   2.072   2.238  0.2050 -0.5300 -0.0463
 1399SOL    HW1 4238   2.894   2.125   2.317 -1.3666  0.9528 -0.7801
 1399SOL    HW2 4239   2.793   2.044   2.238  0.0751 -0.2164 -1.4591
 1400SOL     OW 4240   3.173   2.712   2.804  0.0610  0.5606  0.2464
 1400SOL    HW1 4241   3.238   2.645   2.782  0.1708  1.3809 -2.2798
 1400SOL    HW2 4242   3.135   2.737   2.720 -2.1246  1.5563  1.4314
 1401SOL     OW 4243   2.146   6.206   2.969  0.4894 -0.9654  0.4180
 1401SOL    HW1 4244   2.168   6.297   2.950  1.9132 -1.3795 -0.0489
 1401SOL    HW2 4245   2.180   6.192   3.058 -0.6565 -0.7647  0.9016
 1402SOL     OW 4246   2.954   3.497   2.432 -0.5161  0.2542  0.2865
 1402SOL    HW1 4247   2.908   3.441   2.369 -0.6644  2.3720 -1.6265
 1402SOL    HW2 4248   2.960   3.444   2.511 -0.2642 -2.5941 -1.5074
 1403SOL     OW 4249   0.301   1.770   0.208  0.0744  0.0087 -0.1509
 1403SOL    HW1 4250   0.273   1.709   0.277 -2.0789  1.1632  0.0636
 1403SOL    HW2 4251   0.256   1.741   0.130 -0.7583  1.1291 -0.1093
 1404SOL     OW 4252   3.652   2.821   2.813  0.5896 -0.6547  0.0195
 1404SOL    HW1 4253   3.636   2.734   2.850 -0.8644 -1.2262 -1.8213
 1404SOL    HW2 4254   3.717   2.806   2.745  1.8949  0.0953  1.0406
 1405SOL     OW 4255   2.205   3.014   2.249 -0.1244  0.0144  0.3016
 1405SOL    HW1 4256   2.294   3.003   2.217 -0.2599  1.4555 -0.6493
 1405SOL    HW2 4257   2.169   2.925   2.251  1.6106 -0.7186  1.6512
 1406SOL     OW 4258   3.388   2.516   2.774  0.0392 -0.4033  0.7820
 1406SOL    HW1 4259   3.394   2.427   2.809  1.4851 -0.9390 -0.6830
 1406SOL    HW2 4260   3.403   2.506   2.680  0.8855  1.4492  0.6713
 1407SOL     OW 4261   2.875   3.327   2.213  0.3305  0.3181 -0.2440
 1407SOL    HW1 4262   2.811   3.321   2.142 -0.4138 -0.1189  0.4453
 1407SOL    HW2 4263   2.949   3.375   2.175  0.5530 -1.1056 -1.7495
 1408SOL     OW 4264   3.598   2.883   1.897 -0.0476 -0.1308  0.1018
 1408SOL    HW1 4265   3.545   2.956   1.865 -1.4611 -1.2260 -0.1417
 1408SOL    HW2 4266   3.687   2.917   1.896 -0.6309  1.5125 -0.2349
 1409SOL     OW 4267   2.061   3.909   2.502  0.2123  0.2049  0.2167
 1409SOL    HW1 4268   2.109   3.856   2.565 -0.4830  0.8108  1.2841
 1409SOL    HW2 4269   2.076   3.999   2.530 -0.2378  0.4748 -0.3883
 1410SOL     OW 4270   3.501   2.472   2.481  0.0942  0.1381  0.5459
 1410SOL    HW1 4271   3.470   2.472   2.390 -0.8560 -0.9782  0.8547
 1410SOL    HW2 4272   3.591   2.504   2.475 -0.9498  3.2673 -0.4258
 1411SOL     OW 4273   2.867   3.730   2.874  0.6928  0.1242 -0.2113
 1411SOL    HW1 4274   2.899   3.651   2.917  2.5391 -0.5498 -2.6396
 1411SOL    HW2 4275   2.946   3.777   2.847 -0.3366  0.8952 -2.1064
 1412SOL     OW 4276   2.182   2.868   2.632  0.1944  0.2141 -0.9225
 1412SOL    HW1 4277   2.251   2.897   2.692  0.0852 -0.4995 -0.4472
 1412SOL    HW2 4278   2.230   2.821   2.563  0.1664 -0.6176 -0.3917
 1413SOL     OW 4279   2.600   1.981   2.148  0.3073 -0.4187  0.6147
 1413SOL    HW1 4280   2.535   2.030   2.199  0.2590 -1.2306  1.3444
 1413SOL    HW2 4281   2.569   1.891   2.150 -0.5880 -0.2862 -2.1897
 1414SOL     OW 4282   0.844   0.163   0.243  0.4083 -0.9087  0.7319
 1414SOL    HW1 4283   0.787   0.231   0.277  0.3646 -0.4933 -0.1614
 1414SOL    HW2 4284   0.787   0.107   0.190  1.2194  1.0577 -2.4807
 1415SOL     OW 4285   2.604   3.019   2.611  0.1830  0.0494  0.2369
 1415SOL    HW1 4286   2.654   3.063   2.542  0.3647  0.5384  0.6713
 1415SOL    HW2 4287   2.661   2.947   2.639  0.8715  0.8854  1.0537
 1416SOL     OW 4288   2.444   2.033   2.835 -0.0972 -0.5395  0.1426
 1416SOL    HW1 4289   2.512   1.973   2.867  1.5327  1.0568 -0.2177
 1416SOL    HW2 4290   2.374   1.975   2.805  1.1021 -2.2451  0.4960
 1417SOL     OW 4291   2.595   1.873   2.445  0.1380 -0.4630  0.0449
 1417SOL    HW1 4292   2.536   1.944   2.418 -0.7167 -1.1372  0.1058
 1417SOL    HW2 4293   2.542   1.819   2.503  0.8889 -0.9710  0.2656
 1418SOL     OW 4294   2.950   3.070   2.049 -0.1795  0.0931 -0.2777
 1418SOL    HW1 4295   2.858   3.072   2.075 -0.2360  0.8418 -0.5013
 1418SOL    HW2 4296   2.968   3.160   2.021  0.3107 -0.3144 -1.3051
 1419SOL     OW 4297   2.422   1.899   1.825  0.4691  0.0082  0.1568
 1419SOL    HW1 4298   2.339   1.896   1.873 -0.5828  0.7860 -1.5024
 1419SOL    HW2 4299   2.453   1.989   1.836  1.9024 -0.6565  1.9831
 1420SOL     OW 4300   2.891   2.179   2.479 -0.2466  0.4442 -0.0299
 1420SOL    HW1 4301   2.820   2.241   2.497  0.2599  0.7165  1.1357
 1420SOL    HW2 4302   2.969   2.233   2.471  0.1029  0.0163  0.4076
 1421SOL     OW 4303   2.928   3.507   3.009  0.3795 -0.5259  0.1063
 1421SOL    HW1 4304   2.971   3.470   3.086  0.8149  0.4150  0.3265
 1421SOL    HW2 4305   2.926   3.435   2.946  1.4831 -0.8407  0.4053
 1422SOL     OW 4306   2.719   3.168   2.396  0.1570  0.2176 -0.5703
 1422SOL    HW1 4307   2.637   3.218   2.392  0.7022  1.2088  0.0308
 1422SOL    HW2 4308   2.776   3.209   2.331  1.1372  1.4405  0.9778
 1423SOL     OW 4309   3.241   3.648   2.807 -0.0907  0.5157  0.3979
 1423SOL    HW1 4310   3.282   3.689   2.731 -1.9702  4.0741  1.0841
 1423SOL    HW2 4311   3.152   3.628   2.778 -0.9232  2.1895  1.6438
 1424SOL     OW 4312   2.517   2.163   1.866 -0.2691  0.3448 -0.3109
 1424SOL    HW1 4313   2.555   2.184   1.952 -0.0875  0.7276 -0.4828
 1424SOL    HW2 4314   2.501   2.248   1.826 -1.0943  0.1803 -0.3393
 1425SOL     OW 4315   6.207   2.187   2.991 -0.0936  0.0543 -0.4476
 1425SOL    HW1 4316   6.149   2.111   2.980  0.6736 -0.5418 -0.4268
 1425SOL    HW2 4317   6.194   2.214   3.081 -0.0782 -0.3037 -0.3351
 1426SOL     OW 4318   0.424   4.206   0.253  0.0150  0.1533 -0.2523
 1426SOL    HW1 4319   0.415   4.111   0.260  1.6397  0.0178  0.5739
 1426SOL    HW2 4320   0.363   4.232   0.184  0.1760 -1.5897 -1.0790
 1427SOL     OW 4321   2.628   2.328   2.484  0.0384 -0.1194  0.0913
 1427SOL    HW1 4322   2.587   2.366   2.562  1.5407  1.0981  0.3330
 1427SOL    HW2 4323   2.648   2.403   2.428  0.7997 -0.7885 -0.5731
 1428SOL     OW 4324   3.186   6.163   2.864  0.0082 -0.0575 -0.2111
 1428SOL    HW1 4325   3.154   6.253   2.853  1.8217  0.6040 -0.4741
 1428SOL    HW2 4326   3.159   6.118   2.784  0.6295  0.7784 -0.9168
 1429SOL     OW 4327   3.383   2.951   2.722  0.1247  0.1395 -0.3219
 1429SOL    HW1 4328   3.471   2.922   2.746 -1.3307 -2.5563  2.6133
 1429SOL    HW2 4329   3.354   2.888   2.656  0.3060  0.8776 -1.1105
 1430SOL     OW 4330   3.826   2.276   2.928  0.1246 -0.1827  0.3425
 1430SOL    HW1 4331   3.754   2.262   2.989 -1.3710  0.3612 -1.2322
 1430SOL    HW2 4332   3.877   2.348   2.966 -1.4851  0.9867  0.3520
 1431SOL     OW 4333   3.916   2.847   1.938 -0.6166 -0.1427 -0.1442
 1431SOL    HW1 4334   3.929   2.918   1.876  0.0655  0.0089  0.1630
 1431SOL    HW2 4335   3.938   2.767   1.889  0.6792  0.0357  0.1002
 1432SOL     OW 4336   2.250   3.443   2.467 -0.1014 -0.2140  0.5583
 1432SOL    HW1 4337   2.215   3.494   2.394 -0.6780 -1.0063  0.2735
 1432SOL    HW2 4338   2.176   3.434   2.527 -0.2304 -1.3472  0.2532
 1433SOL     OW 4339   3.337   2.792   2.456  0.5330  0.0195 -0.8467
 1433SOL    HW1 4340   3.330   2.875   2.409  0.5376 -0.2561 -1.3372
 1433SOL    HW2 4341   3.420   2.754   2.427  0.0825 -0.5964 -1.3428
 1434SOL     OW 4342   3.159   2.668   2.185 -0.8656 -0.4780 -0.7671
 1434SOL    HW1 4343   3.089   2.635   2.241 -0.9167 -0.7866 -1.0087
 1434SOL    HW2 4344   3.150   2.763   2.189 -0.8287 -0.4931 -0.2039
 1435SOL     OW 4345   2.304   2.284   2.115 -0.5296  0.0827 -0.3565
 1435SOL    HW1 4346   2.274   2.215   2.056  0.6237 -0.0111 -0.8529
 1435SOL    HW2 4347   2.290   2.249   2.203  0.2965 -0.9031 -0.6098
 1436SOL     OW 4348   3.237   3.059   2.969 -0.2656  0.2514  0.2522
 1436SOL    HW1 4349   3.224   3.146   2.932  0.1143  0.6105  0.9294
 1436SOL    HW2 4350   3.277   3.008   2.898 -2.1780  0.0722 -0.7547
 1437SOL     OW 4351   2.397   2.499   2.218 -0.4263 -0.4372  0.5514
 1437SOL    HW1 4352   2.455   2.543   2.156 -1.9245 -0.5022 -0.9770
 1437SOL    HW2 4353   2.375   2.416   2.176  0.0199 -1.3772  2.0691
 1438SOL     OW 4354   2.045   3.186   2.091 -0.0344  0.2272  0.7622
 1438SOL    HW1 4355   2.116   3.146   2.140 -0.6923  0.3100  1.8088
 1438SOL    HW2 4356   1.977   3.204   2.156 -1.5166 -0.9486 -0.3834
 1439SOL     OW 4357   2.208   2.487   2.537 -0.0783  0.1298 -0.1057
 1439SOL    HW1 4358   2.220   2.445   2.452  1.6552 -0.6315  0.4779
 1439SOL    HW2 4359   2.216   2.416   2.600 -0.1398  0.8723  0.7541
 1440SOL     OW 4360   3.304   3.205   2.619  0.1194 -0.0075 -0.3949
 1440SOL    HW1 4361   3.384   3.160   2.647 -0.1395  0.5935  1.4367
 1440SOL    HW2 4362   3.241   3.135   2.602  0.7441 -0.4478 -0.9657
 1441SOL     OW 4363   3.097   2.767   2.546  0.2105 -0.5692 -0.3702
 1441SOL    HW1 4364   3.043   2.710   2.491  0.1440 -0.3636 -0.5219
 1441SOL    HW2 4365   3.184   2.762   2.507 -0.3179  1.3987 -1.9603
 1442SOL     OW 4366   2.992   2.594   2.988  0.2745  0.1646  0.4845
 1442SOL    HW1 4367   2.996   2.501   2.969  1.2962 -0.2792  2.6648
 1442SOL    HW2 4368   3.055   2.633   2.926  0.8931 -0.7616  0.5047
 1443SOL     OW 4369   2.979   2.586   2.352 -0.4753 -0.0646  0.4627
 1443SOL    HW1 4370   3.017   2.514   2.402 -0.0055  1.0344  1.7484
 1443SOL    HW2 4371   2.885   2.582   2.371 -0.3172  0.2709  1.3774
 1444SOL     OW 4372   0.207   0.961   0.224  0.0565  0.3370 -0.0256
 1444SOL    HW1 4373   0.259   0.905   0.167  0.9543  2.7738 -1.7707
 1444SOL    HW2 4374   0.220   0.925   0.312  0.1451 -2.4132 -1.0647
 1445SOL     OW 4375   0.402   0.012  -0.003  0.5555 -0.5163 -0.4647
 1445SOL    HW1 4376   0.386  -0.028  -0.089 -1.3676  1.5056 -1.1351
 1445SOL    HW2 4377   0.343   0.087  -0.000  2.2464  0.8514  1.7085
 1446SOL     OW 4378   2.466   2.117   2.521 -0.2594  0.1554  0.3184
 1446SOL    HW1 4379   2.550   2.162   2.509 -0.5295  0.5862  0.0223
 1446SOL    HW2 4380   2.468   2.088   2.613  0.1870  0.2108  0.3326
 1447SOL     OW 4381   3.389   2.511   2.246  0.1394 -0.0059 -0.1294
 1447SOL    HW1 4382   3.368   2.429   2.201 -0.5262 -0.3598  0.8041
 1447SOL    HW2 4383   3.310   2.564   2.239  0.3974  0.3676 -0.2964
 1448SOL     OW 4384   2.944   2.302   2.948 -0.1557  0.1083 -0.2356
 1448SOL    HW1 4385   2.875   2.275   3.008 -0.4129  2.0020  0.4075
 1448SOL    HW2 4386   3.025   2.283   2.995 -0.0627 -3.2249 -1.4637
 1449SOL     OW 4387   3.402   2.333   1.976 -0.0767 -0.1269  0.5698
 1449SOL    HW1 4388   3.414   2.361   1.886 -0.4079  0.3268  0.6635
 1449SOL    HW2 4389   3.307   2.326   1.987  0.0041 -2.6285  0.1576
 1450SOL     OW 4390   2.842   2.729   2.124  0.0756  0.6190  0.3499
 1450SOL    HW1 4391   2.824   2.787   2.199  0.1854 -0.7138  1.4482
 1450SOL    HW2 4392   2.930   2.695   2.141  0.0298  0.1737 -0.2962
 1451SOL     OW 4393   2.904   3.269   2.856  0.0315 -0.4772  0.1468
 1451SOL    HW1 4394   2.864   3.289   2.771 -0.2382  0.3342  0.4547
 1451SOL    HW2 4395   2.868   3.183   2.880  1.8646 -1.8329 -1.6083
 1452SOL     OW 4396   0.181   0.609   0.024  0.3081 -0.0163  0.0231
 1452SOL    HW1 4397   0.220   0.524  -0.001  0.4145 -0.2680  0.9990
 1452SOL    HW2 4398   0.182   0.608   0.120  1.1610  1.4815  0.0592
 1453SOL     OW 4399   2.056   2.552   2.779 -0.1875 -0.3103 -0.5559
 1453SOL    HW1 4400   1.988   2.514   2.723  0.3595 -3.0434  0.4799
 1453SOL    HW2 4401   2.133   2.558   2.723 -0.1433 -1.2849 -0.6155
 1454SOL     OW 4402   1.800   3.392   2.145  0.1879  0.3323  0.6274
 1454SOL    HW1 4403   1.790   3.325   2.077  1.3556 -0.2427  0.9755
 1454SOL    HW2 4404   1.776   3.348   2.226  0.8260  0.3618  0.8415
 1455SOL     OW 4405   6.133   3.551   2.743  0.2850  0.0461 -0.1579
 1455SOL    HW1 4406   6.127   3.466   2.785 -0.3077 -0.3030 -0.9271
 1455SOL    HW2 4407   6.227   3.569   2.738  0.4192 -0.6194 -0.1100
 1456SOL     OW 4408   2.555   3.283   2.874  0.0731 -0.1905 -0.0085
 1456SOL    HW1 4409   2.461   3.272   2.893  0.2203 -1.3798  0.1235
 1456SOL    HW2 4410   2.578   3.367   2.914 -0.7781 -0.2366  0.6055
 1457SOL     OW 4411   0.409   0.349   0.180  0.0212 -0.5309 -0.3917
 1457SOL    HW1 4412   0.468   0.388   0.116 -1.5864  0.3900 -1.3654
 1457SOL    HW2 4413   0.326   0.340   0.134 -1.7760  1.9782  2.0730
 1458SOL     OW 4414   6.079   2.199   2.686  0.0269 -0.5781 -0.0484
 1458SOL    HW1 4415   6.155   2.161   2.641 -0.2329 -1.8509  0.5637
 1458SOL    HW2 4416   6.113   2.225   2.771  0.3171  1.0709 -0.6203
 1459SOL     OW 4417   2.678   2.510   2.284  0.2728  0.1186 -0.2153
 1459SOL    HW1 4418   2.690   2.487   2.192  0.5617  2.0526 -0.7062
 1459SOL    HW2 4419   2.594   2.555   2.287 -0.2403 -0.8413  0.6885
 1460SOL     OW 4420   1.046   0.183   0.002 -0.3840 -0.0029 -0.0473
 1460SOL    HW1 4421   1.015   0.192   0.092  0.5582 -0.3438  0.3186
 1460SOL    HW2 4422   1.091   0.266  -0.016 -1.5637  0.5279 -0.6076
 1461SOL     OW 4423   1.850   2.479   2.062  0.2205  0.6587 -0.6260
 1461SOL    HW1 4424   1.926   2.433   2.027 -0.4722 -0.4143 -0.7868
 1461SOL    HW2 4425   1.866   2.571   2.043  1.6233  0.4943 -0.3597
 1462SOL     OW 4426   4.165   0.731   0.659 -0.2142 -0.7157 -0.0795
 1462SOL    HW1 4427   4.158   0.702   0.750 -1.5925  1.4006  0.5601
 1462SOL    HW2 4428   4.231   0.673   0.621  1.2050 -1.0110  2.5428
 1463SOL     OW 4429   3.082   2.930   2.247 -0.0832  0.2308 -0.2908
 1463SOL    HW1 4430   3.050   2.972   2.167 -0.6324 -1.6518 -1.1132
 1463SOL    HW2 4431   3.003   2.912   2.298 -0.0950 -1.4759 -0.8367
 1464SOL     OW 4432   3.470   3.324   2.907  0.1643  0.8321 -0.1744
 1464SOL    HW1 4433   3.390   3.323   2.854 -0.5329 -0.7221  0.8272
 1464SOL    HW2 4434   3.541   3.316   2.844 -0.6053 -0.2068 -0.9449
 1465SOL     OW 4435   0.410   1.189   0.190  0.6261 -0.1423  0.1996
 1465SOL    HW1 4436   0.360   1.108   0.179  1.1840 -0.5142  0.3748
 1465SOL    HW2 4437   0.419   1.223   0.101 -1.8189  1.0996  0.3344
 1466SOL     OW 4438   3.771   2.447   2.421 -0.3519  0.2130 -0.2304
 1466SOL    HW1 4439   3.779   2.393   2.342  1.9047  0.4876 -0.2790
 1466SOL    HW2 4440   3.783   2.385   2.493 -3.0480 -0.1424 -0.0143
 1467SOL     OW 4441   3.345   3.029   2.282  0.3552  0.7679  0.2922
 1467SOL    HW1 4442   3.388   2.986   2.208  1.6512 -1.4165  2.1677
 1467SOL    HW2 4443   3.252   3.008   2.270  0.3979  1.2615 -1.1563
 1468SOL     OW 4444   3.018   2.434   2.704 -0.4170 -0.6347  0.1199
 1468SOL    HW1 4445   2.977   2.391   2.779  0.2470 -0.3035  0.6867
 1468SOL    HW2 4446   3.085   2.372   2.675 -0.0406 -0.3657  0.3982
 1469SOL     OW 4447   2.581   3.808   1.950  0.0196  0.2327  0.2577
 1469SOL    HW1 4448   2.498   3.777   1.985 -0.4331 -0.0022 -0.9792
 1469SOL    HW2 4449   2.610   3.875   2.012 -0.2790 -0.7973  1.5719
 1470SOL     OW 4450   1.491   4.233   0.075  0.1014 -0.7191 -0.2400
 1470SOL    HW1 4451   1.565   4.236   0.136  0.0654 -0.2112 -0.2181
 1470SOL    HW2 4452   1.457   4.323   0.074  0.0274 -0.7509 -0.9151
 1471SOL     OW 4453   2.018   2.088   2.172 -0.4592  0.2211  0.3936
 1471SOL    HW1 4454   2.061   2.160   2.217  3.1481 -2.0233  0.9544
 1471SOL    HW2 4455   2.015   2.017   2.236  1.4760 -1.8816 -1.5946
 1472SOL     OW 4456   2.455   3.169   1.734 -0.2716  0.0498 -0.2097
 1472SOL    HW1 4457   2.369   3.176   1.692  0.1991  0.0357 -1.2162
 1472SOL    HW2 4458   2.468   3.075   1.747  0.5017 -0.1533 -2.0949
 1473SOL     OW 4459   3.251   3.390   1.748 -0.2473 -0.1750 -0.4173
 1473SOL    HW1 4460   3.283   3.464   1.800 -1.0003  0.2083 -0.4913
 1473SOL    HW2 4461   3.274   3.413   1.658  1.9155 -1.2729 -0.2160
 1474SOL     OW 4462   3.059   3.036   2.647 -0.1800 -0.2177 -0.1337
 1474SOL    HW1 4463   3.042   3.005   2.736  0.8890  1.9317  0.9070
 1474SOL    HW2 4464   3.061   2.957   2.594 -0.9720 -1.5601  1.7226
 1475SOL     OW 4465   3.016   2.039   2.780 -0.1538  0.0559 -0.0807
 1475SOL    HW1 4466   2.962   2.069   2.854 -0.1859  1.4366 -0.6347
 1475SOL    HW2 4467   2.953   2.006   2.716 -0.3056  0.8614 -0.3653
 1476SOL     OW 4468   2.325   3.740   2.033 -0.1926  0.4473  0.1873
 1476SOL    HW1 4469   2.265   3.667   2.051 -0.2374  0.4393  0.0060
 1476SOL    HW2 4470   2.365   3.759   2.118 -1.2098  1.1210  0.5397
 1477SOL     OW 4471   2.160   3.169   2.456  0.2452  0.0840  0.4118
 1477SOL    HW1 4472   2.179   3.108   2.385 -1.7306 -1.2610  0.9482
 1477SOL    HW2 4473   2.067   3.190   2.446  0.7266  2.6520  0.5777
 1478SOL     OW 4474   2.144   2.165   1.322  0.3520 -0.0451  0.2519
 1478SOL    HW1 4475   2.114   2.140   1.234 -1.2461  0.0056  0.7475
 1478SOL    HW2 4476   2.197   2.243   1.308  0.4081 -0.2440 -0.7078
 1479SOL     OW 4477   1.627   2.175   1.809  0.1773  0.2930 -0.2200
 1479SOL    HW1 4478   1.595   2.261   1.782 -0.7206 -0.1814 -0.7106
 1479SOL    HW2 4479   1.678   2.191   1.888  0.9416  1.4212 -0.9164
 1480SOL     OW 4480   3.059   3.296   1.926  0.0812  0.1354 -0.0591
 1480SOL    HW1 4481   3.029   3.385   1.946 -0.8980 -0.4952  1.4314
 1480SOL    HW2 4482   3.127   3.309   1.860 -1.5451  1.8123 -1.5227
 1481SOL     OW 4483   3.206   3.587   3.061 -0.7993 -0.1871  0.2159
 1481SOL    HW1 4484   3.219   3.603   2.968 -1.9021  0.0724  0.0826
 1481SOL    HW2 4485   3.135   3.522   3.064 -0.6479 -0.3297  0.8723
 1482SOL     OW 4486   3.122   2.291   2.380 -0.3619 -0.2439 -0.5482
 1482SOL    HW1 4487   3.202   2.280   2.328 -0.6451  0.5026 -1.1637
 1482SOL    HW2 4488   3.149   2.275   2.470  0.2399 -1.0952 -0.8635
 1483SOL     OW 4489   2.324   2.721   2.429  0.2343 -0.0589 -0.4427
 1483SOL    HW1 4490   2.289   2.651   2.484  0.0604 -0.2626 -0.8049
 1483SOL    HW2 4491   2.342   2.678   2.345 -1.2031  0.6131 -1.1355
 1484SOL     OW 4492   2.662   3.508   2.974  0.0002  0.0684  0.1055
 1484SOL    HW1 4493   2.649   3.594   2.933  0.5750  0.7180  1.2249
 1484SOL    HW2 4494   2.755   3.507   2.998 -0.0593 -0.7713  0.3242
 1485SOL     OW 4495   2.796   2.876   2.732 -0.3115 -0.0727  0.3320
 1485SOL    HW1 4496   2.875   2.900   2.780  0.7799  2.5419 -2.4462
 1485SOL    HW2 4497   2.820   2.795   2.685  0.9428  0.9055 -0.7894
 1486SOL     OW 4498   2.802   2.882   1.838 -0.4686  0.0760 -0.0922
 1486SOL    HW1 4499   2.794   2.977   1.832 -1.3326  0.0697  0.7437
 1486SOL    HW2 4500   2.825   2.866   1.930 -0.1758 -0.5124 -0.2647
 1487SOL     OW 4501   3.602   3.556   2.659  0.1845  0.4285 -0.4398
 1487SOL    HW1 4502   3.526   3.614   2.665  1.8869  2.6441  2.0128
 1487SOL    HW2 4503   3.575   3.476   2.705 -0.7212  1.1245  0.2673
 1488SOL     OW 4504   1.885   3.221   2.363 -0.5667  0.2131 -0.1633
 1488SOL    HW1 4505   1.852   3.303   2.400  0.0453  0.0637  0.7528
 1488SOL    HW2 4506   1.829   3.153   2.402 -0.4111  0.1137 -0.1124
 1489SOL     OW 4507   2.110   2.252   2.354 -0.0709  0.2201 -0.2463
 1489SOL    HW1 4508   2.059   2.323   2.315 -1.5066 -1.1327 -0.9450
 1489SOL    HW2 4509   2.087   2.254   2.447  0.0408  0.7638 -0.2237
 1490SOL     OW 4510   2.916   3.269   2.575  0.6386  0.3729  0.6025
 1490SOL    HW1 4511   2.842   3.244   2.520  0.9474  1.7605 -0.4732
 1490SOL    HW2 4512   2.960   3.186   2.595 -0.1291 -0.2643 -0.2880
 1491SOL     OW 4513   3.616   1.884   2.600 -0.3683  0.4769 -0.4562
 1491SOL    HW1 4514   3.526   1.851   2.592  0.3596 -1.7948 -0.2298
 1491SOL    HW2 4515   3.620   1.920   2.689 -0.4013 -1.9267  0.6262
 1492SOL     OW 4516   1.155   3.940   0.026  0.0837 -0.5620  0.1965
 1492SOL    HW1 4517   1.103   3.976  -0.046  0.3640 -2.5294 -1.1002
 1492SOL    HW2 4518   1.101   3.951   0.104 -1.3608 -0.6506 -0.7637
 1493SOL     OW 4519   2.688   3.097   2.084  0.2781 -0.2197 -0.5296
 1493SOL    HW1 4520   2.627   3.026   2.102  1.0273 -0.1858  2.6665
 1493SOL    HW2 4521   2.633   3.175   2.078 -0.2546 -0.6070 -0.7469
 1494SOL     OW 4522   3.483   2.148   2.608  0.6004 -0.4123  0.6306
 1494SOL    HW1 4523   3.521   2.229   2.573  0.7459 -0.6990  0.1038
 1494SOL    HW2 4524   3.544   2.079   2.580 -1.6751 -1.2916 -2.8229
 1495SOL     OW 4525   3.355   2.232   2.236 -0.2030  0.0793 -0.6111
 1495SOL    HW1 4526   3.331   2.175   2.163  1.9323 -1.9832  0.1523
 1495SOL    HW2 4527   3.423   2.183   2.283 -0.8977  1.6751  2.2951
 1496SOL     OW 4528   4.409   6.171   2.864  0.2733 -0.2191  0.1626
 1496SOL    HW1 4529   4.342   6.107   2.839 -1.1996  1.2945  0.0639
 1496SOL    HW2 4530   4.392   6.246   2.808  2.5734 -0.0406 -0.3919
 1497SOL     OW 4531   5.920   3.302   2.717  0.0511  0.6934 -0.1214
 1497SOL    HW1 4532   5.902   3.337   2.804  1.1737 -0.4200  0.5904
 1497SOL    HW2 4533   5.860   3.229   2.707 -0.0363  0.7838 -0.2708
 1498SOL     OW 4534   3.028   3.734   2.611  0.3150 -0.0305  0.3274
 1498SOL    HW1 4535   3.000   3.658   2.559  0.2571  0.6806 -0.7125
 1498SOL    HW2 4536   3.073   3.790   2.548 -0.4638  1.2453  0.8769
 1499SOL     OW 4537   1.988   4.260   0.474  0.5870 -0.4241  0.4388
 1499SOL    HW1 4538   2.049   4.227   0.408  0.9457 -0.1680  0.6448
 1499SOL    HW2 4539   1.994   4.355   0.467 -0.7666 -0.3704 -0.4500
 1500SOL     OW 4540   2.050   3.873   0.763  0.5186 -0.2586  0.0581
 1500SOL    HW1 4541   2.003   3.956   0.756 -1.1748 -1.2487 -0.7251
 1500SOL    HW2 4542   2.049   3.854   0.857 -0.6705 -0.2704  0.0544
 1501SOL     OW 4543   1.688   4.199   0.265 -0.5311 -0.6840 -0.1406
 1501SOL    HW1 4544   1.699   4.171   0.356 -1.8056  0.2927  0.3491
 1501SOL    HW2 4545   1.720   4.290   0.264 -0.7337 -0.6168 -0.6052
 1502SOL     OW 4546   3.662   4.439   0.429 -0.0437 -0.5289  0.8168
 1502SOL    HW1 4547   3.674   4.419   0.336 -0.0804 -0.9025  0.8902
 1502SOL    HW2 4548   3.658   4.535   0.432  2.6091 -0.3301  0.7411
 1503SOL     OW 4549   2.248   4.247   0.933 -0.3971  0.3193  0.3487
 1503SOL    HW1 4550   2.331   4.256   0.887 -0.5423  0.3446  0.0942
 1503SOL    HW2 4551   2.260   4.172   0.991  0.3475  1.2482  1.4560
 1504SOL     OW 4552   3.893   4.310   1.162 -0.3024 -0.1563  0.4030
 1504SOL    HW1 4553   3.959   4.303   1.094 -0.3623  1.4343  0.1565
 1504SOL    HW2 4554   3.893   4.402   1.188 -2.8615  0.0780 -0.0943
 1505SOL     OW 4555   1.852   4.052   0.570  0.3368 -0.1406  0.1131
 1505SOL    HW1 4556   1.896   4.024   0.489 -0.9946  0.7417 -0.9632
 1505SOL    HW2 4557   1.887   4.139   0.587  0.3319 -0.1701  0.2671
 1506SOL     OW 4558   4.648   6.218   2.956  0.8131  0.1252  0.1574
 1506SOL    HW1 4559   4.558   6.205   2.926  1.1784 -0.1035 -0.8626
 1506SOL    HW2 4560   4.670   6.306   2.927  1.1080 -0.0289 -0.0891
 1507SOL     OW 4561   2.083   4.408   1.706 -0.2999  0.2344 -0.0277
 1507SOL    HW1 4562   2.094   4.316   1.681  0.5435  0.0007  1.1465
 1507SOL    HW2 4563   2.105   4.457   1.627  1.5768 -0.5005 -0.0124
 1508SOL     OW 4564   2.949   3.865   1.046  0.3058 -0.2279  0.9718
 1508SOL    HW1 4565   3.042   3.881   1.059  0.6099 -0.5046 -0.6217
 1508SOL    HW2 4566   2.909   3.952   1.049  0.7832  0.0108  0.5348
 1509SOL     OW 4567   3.715   4.192   2.068 -0.6102 -0.3093  0.2024
 1509SOL    HW1 4568   3.671   4.117   2.109 -0.9198 -0.0687  0.3056
 1509SOL    HW2 4569   3.757   4.238   2.141  1.0679 -1.3460 -0.0383
 1510SOL     OW 4570   2.852   4.383   1.090 -0.1294 -0.2157 -0.1622
 1510SOL    HW1 4571   2.908   4.309   1.114  0.2768  0.3036  0.5381
 1510SOL    HW2 4572   2.804   4.403   1.170  0.3717  0.8011 -0.1051
 1511SOL     OW 4573   2.875   4.286   0.793 -0.0913 -0.2132 -0.0080
 1511SOL    HW1 4574   2.968   4.263   0.803  0.5322  2.5223  1.4853
 1511SOL    HW2 4575   2.848   4.316   0.879 -1.5584  1.6554 -1.0427
 1512SOL     OW 4576   2.276   4.237   0.611  0.0632  0.7615 -0.3788
 1512SOL    HW1 4577   2.282   4.142   0.614  0.9304  0.8252  0.4701
 1512SOL    HW2 4578   2.183   4.255   0.603  0.0076 -0.1748 -2.3268
 1513SOL     OW 4579   3.866   4.333   2.258  0.0484  0.0926  0.2839
 1513SOL    HW1 4580   3.904   4.416   2.227 -0.9020  0.2148 -0.6119
 1513SOL    HW2 4581   3.941   4.273   2.262  0.3385  0.2360 -1.7690
 1514SOL     OW 4582   2.527   3.917   0.434  0.0480  0.4738  0.1984
 1514SOL    HW1 4583   2.504   3.890   0.345 -0.3479 -2.5701  1.1283
 1514SOL    HW2 4584   2.443   3.932   0.477  0.2324  1.6737  0.1674
 1515SOL     OW 4585   3.240   4.440   1.042  0.8721  0.3744  0.4327
 1515SOL    HW1 4586   3.308   4.379   1.071  2.4592  2.0380  0.3920
 1515SOL    HW2 4587   3.196   4.394   0.970  1.0566 -1.2653  1.3065
 1516SOL     OW 4588   2.102   4.084   1.448  0.7207 -0.5891  0.2949
 1516SOL    HW1 4589   2.171   4.145   1.421  1.6183 -0.8731  1.8362
 1516SOL    HW2 4590   2.101   4.089   1.543 -1.4511 -0.5635  0.3136
 1517SOL     OW 4591   3.479   4.208   0.440 -0.2713  0.2749 -0.2360
 1517SOL    HW1 4592   3.405   4.265   0.418 -1.1647 -0.7780 -0.0992
 1517SOL    HW2 4593   3.543   4.266   0.481 -1.9660  0.8868  1.7508
 1518SOL     OW 4594   3.172   4.057   2.218  0.2920  0.7010  0.3929
 1518SOL    HW1 4595   3.202   4.139   2.178 -1.1739  1.0703  0.0050
 1518SOL    HW2 4596   3.144   4.003   2.144  2.3563 -0.6681  0.5277
 1519SOL     OW 4597   3.114   3.958   1.984 -0.1047 -0.2625 -0.2173
 1519SOL    HW1 4598   3.094   3.867   1.963 -0.9829 -0.6949  2.1461
 1519SOL    HW2 4599   3.078   4.008   1.911 -4.6482 -1.4518  0.8625
 1520SOL     OW 4600   2.935   5.174   1.658  0.3506  0.2795  0.1194
 1520SOL    HW1 4601   2.846   5.170   1.692  0.1038 -1.3816 -0.6095
 1520SOL    HW2 4602   2.986   5.120   1.719  0.4217 -0.4977 -0.6001
 1521SOL     OW 4603   2.334   3.764   0.135  0.2334  0.1343  0.6724
 1521SOL    HW1 4604   2.362   3.684   0.180 -1.2757 -0.3782  0.7644
 1521SOL    HW2 4605   2.415   3.804   0.104  0.9636 -2.3818 -0.9925
 1522SOL     OW 4606   2.703   4.183   0.368  0.2789  0.0110 -0.0496
 1522SOL    HW1 4607   2.625   4.127   0.371 -0.9749  1.5303 -1.7436
 1522SOL    HW2 4608   2.686   4.251   0.432  1.9393 -1.5777  2.2309
 1523SOL     OW 4609   2.171   4.565   1.490  0.2104  0.7018 -0.3100
 1523SOL    HW1 4610   2.221   4.632   1.536  1.1499  0.8670 -1.5308
 1523SOL    HW2 4611   2.112   4.613   1.432 -1.3387  0.5055  0.9974
 1524SOL     OW 4612   2.679   4.369   1.307  0.3713  0.9179  0.6897
 1524SOL    HW1 4613   2.697   4.455   1.345  1.8475  0.8186  0.2951
 1524SOL    HW2 4614   2.734   4.308   1.357 -1.5469 -0.0099  1.7580
 1525SOL     OW 4615   2.820   4.030   0.763 -0.2343 -0.0409 -0.7726
 1525SOL    HW1 4616   2.829   4.126   0.760  1.5841 -0.1026  1.0472
 1525SOL    HW2 4617   2.905   3.997   0.737 -0.6807 -1.1817 -0.8170
 1526SOL     OW 4618   3.428   4.266   1.129 -0.1401 -0.0418  0.3880
 1526SOL    HW1 4619   3.447   4.202   1.060 -0.7711  0.1658  0.0210
 1526SOL    HW2 4620   3.488   4.242   1.200 -0.7823 -1.4389  0.4953
 1527SOL     OW 4621   4.752   5.970   2.966  0.1590 -0.2423 -0.1127
 1527SOL    HW1 4622   4.731   6.061   2.986  1.4660  0.4100 -1.4545
 1527SOL    HW2 4623   4.740   5.963   2.871  0.1878 -1.4461 -0.0429
 1528SOL     OW 4624   2.637   3.994   1.186  0.3735  0.6200 -0.2701
 1528SOL    HW1 4625   2.584   4.013   1.263 -1.7978 -1.8491 -1.0033
 1528SOL    HW2 4626   2.678   3.910   1.204  0.1290  0.1737 -1.6413
 1529SOL     OW 4627   3.106   4.466   1.302 -0.0611  0.3522  0.0698
 1529SOL    HW1 4628   3.085   4.553   1.269  2.3207  1.1090  0.3802
 1529SOL    HW2 4629   3.170   4.432   1.241  0.2486 -0.5139  0.8567
 1530SOL     OW 4630   1.849   3.713   0.552  0.1672 -0.2996  0.4686
 1530SOL    HW1 4631   1.891   3.786   0.507 -1.5134  0.0226 -0.6830
 1530SOL    HW2 4632   1.801   3.754   0.625  1.5081 -0.6219  1.5648
 1531SOL     OW 4633   2.442   4.187   1.751  0.2617 -0.1414 -0.4967
 1531SOL    HW1 4634   2.351   4.217   1.761  0.1679  0.1350 -1.9850
 1531SOL    HW2 4635   2.436   4.092   1.749  0.2281 -0.2016  1.2509
 1532SOL     OW 4636   2.135   3.892   1.257 -0.3227  0.0811 -0.1281
 1532SOL    HW1 4637   2.140   3.951   1.332 -0.3425  0.5826 -0.5152
 1532SOL    HW2 4638   2.144   3.804   1.294 -0.0975  0.3401  0.4327
 1533SOL     OW 4639   2.636   4.687   0.723 -0.2189 -0.0567 -0.0740
 1533SOL    HW1 4640   2.696   4.655   0.791  1.1157  3.1995  0.4393
 1533SOL    HW2 4641   2.550   4.681   0.763  0.0757 -1.7522  0.4109
 1534SOL     OW 4642   1.847   3.514   0.379 -0.4635 -0.5454  0.1181
 1534SOL    HW1 4643   1.847   3.581   0.448  2.5931 -0.3246  0.0131
 1534SOL    HW2 4644   1.933   3.473   0.385 -1.6220 -3.3938 -0.9271
 1535SOL     OW 4645   3.689   4.308   0.021  0.0540  0.0666  0.6722
 1535SOL    HW1 4646   3.597   4.324   0.044 -0.0465  0.2622  0.1433
 1535SOL    HW2 4647   3.688   4.228  -0.031  0.0232  0.6921 -0.3319
 1536SOL     OW 4648   3.813   3.875   0.283  0.1538  0.0063 -0.6612
 1536SOL    HW1 4649   3.819   3.781   0.266 -1.7336  0.1629 -2.5684
 1536SOL    HW2 4650   3.814   3.916   0.196 -0.4141  1.6596  0.0605
 1537SOL     OW 4651   2.687   4.367   0.551 -0.0868 -0.2293  0.0237
 1537SOL    HW1 4652   2.744   4.379   0.627 -0.8547  2.3075  0.2933
 1537SOL    HW2 4653   2.600   4.389   0.583 -0.6304 -0.3871 -1.2914
 1538SOL     OW 4654   3.004   4.442   1.775  0.7294  0.1960  0.5541
 1538SOL    HW1 4655   2.945   4.386   1.826  0.3015  0.7475  0.6747
 1538SOL    HW2 4656   3.041   4.503   1.840 -1.1099  2.0219 -0.0120
 1539SOL     OW 4657   3.194   4.348   1.564  0.1292  0.7883  0.0852
 1539SOL    HW1 4658   3.118   4.376   1.615 -0.5204 -1.4731  0.4568
 1539SOL    HW2 4659   3.163   4.346   1.474 -0.4172 -0.5360  0.2842
 1540SOL     OW 4660   1.858   4.396   0.826  0.7582 -1.3795  0.0065
 1540SOL    HW1 4661   1.829   4.438   0.907  1.1587 -0.6515 -0.2193
 1540SOL    HW2 4662   1.785   4.408   0.765  1.6411  0.8561 -0.7055
 1541SOL     OW 4663   2.268   4.286   1.363  0.2108 -0.0308 -0.1559
 1541SOL    HW1 4664   2.339   4.303   1.301 -0.1567 -0.2078 -0.6250
 1541SOL    HW2 4665   2.260   4.368   1.413  0.2635  0.2440 -0.5881
 1542SOL     OW 4666   2.676   4.417   0.225 -0.4093 -0.0716 -0.2005
 1542SOL    HW1 4667   2.735   4.441   0.297 -1.4506  3.3187 -0.2600
 1542SOL    HW2 4668   2.686   4.323   0.215  1.8752 -0.2431  2.5032
 1543SOL     OW 4669   3.576   4.224   1.357 -0.5310 -0.8540 -0.0663
 1543SOL    HW1 4670   3.548   4.215   1.448 -1.8254 -2.2188 -0.5556
 1543SOL    HW2 4671   3.658   4.175   1.352 -1.1237 -1.8957  0.1047
 1544SOL     OW 4672   2.560   4.381   0.840 -0.6128  0.2464 -0.7151
 1544SOL    HW1 4673   2.641   4.429   0.822 -0.5612  1.3435  1.9995
 1544SOL    HW2 4674   2.586   4.309   0.897 -1.0580 -1.7717 -2.8909
 1545SOL     OW 4675   3.602   3.802   0.637  0.0599  0.5578  0.4954
 1545SOL    HW1 4676   3.696   3.790   0.655  0.0883  0.4736  0.2979
 1545SOL    HW2 4677   3.599   3.833   0.547 -0.1795 -0.9738 -0.0492
 1546SOL     OW 4678   3.812   3.909   1.159 -0.8304 -0.2960 -0.3588
 1546SOL    HW1 4679   3.893   3.888   1.112  0.9999  1.2620  1.8647
 1546SOL    HW2 4680   3.746   3.917   1.090  0.4510 -3.1885 -2.1470
 1547SOL     OW 4681   1.732   3.883   0.175 -0.6119 -0.0155  0.7891
 1547SOL    HW1 4682   1.651   3.908   0.131  0.0888  1.6967  0.3880
 1547SOL    HW2 4683   1.786   3.962   0.174  1.4865 -1.3610  0.1495
 1548SOL     OW 4684   3.112   4.144   0.829 -0.0130  0.2858 -0.1460
 1548SOL    HW1 4685   3.176   4.114   0.765  1.0866  0.6189  0.7705
 1548SOL    HW2 4686   3.103   4.072   0.891 -0.2202  0.3956 -0.0471
 1549SOL     OW 4687   3.417   3.970   1.618  0.4311 -0.6377 -0.1448
 1549SOL    HW1 4688   3.448   3.933   1.536  3.5260 -1.2054  1.1389
 1549SOL    HW2 4689   3.456   4.057   1.623 -2.3350  0.7495 -0.6218
 1550SOL     OW 4690   2.771   4.147   1.533 -0.1980  0.0327 -0.1227
 1550SOL    HW1 4691   2.817   4.069   1.566  1.2952  1.0057  0.1632
 1550SOL    HW2 4692   2.699   4.111   1.482  0.7364 -1.5553 -0.4158
 1551SOL     OW 4693   4.062   6.201   2.713  0.5830  0.1465 -0.1166
 1551SOL    HW1 4694   4.011   6.254   2.652  0.7685  3.2221  2.1159
 1551SOL    HW2 4695   4.001   6.136   2.746 -1.0640  1.7279  0.1427
 1552SOL     OW 4696   2.074   3.917   0.041  0.3698  0.1293  0.4352
 1552SOL    HW1 4697   2.130   3.939  -0.034 -1.5928 -0.9555 -1.4811
 1552SOL    HW2 4698   2.132   3.869   0.100  1.7890  0.1935 -0.8273
 1553SOL     OW 4699   2.790   4.280   2.128 -0.0712  0.0522  0.2541
 1553SOL    HW1 4700   2.875   4.242   2.106  0.5872  1.1355  0.8687
 1553SOL    HW2 4701   2.743   4.209   2.173  1.2971  0.0624  1.7649
 1554SOL     OW 4702   3.093   3.934   0.596 -0.0143  0.1404 -0.4921
 1554SOL    HW1 4703   3.177   3.913   0.637  0.3902  1.0088 -0.8509
 1554SOL    HW2 4704   3.062   3.851   0.559  1.3954  0.0751 -1.6146
 1555SOL     OW 4705   3.377   4.003   1.942  0.6762 -0.1295  0.2698
 1555SOL    HW1 4706   3.377   4.021   1.848  1.0243  0.2488  0.3393
 1555SOL    HW2 4707   3.286   3.981   1.962  0.8083 -1.3220 -0.3574
 1556SOL     OW 4708   3.605   3.595   1.217 -0.3548 -0.4612 -0.0848
 1556SOL    HW1 4709   3.637   3.595   1.307  1.4412 -0.0007 -0.6862
 1556SOL    HW2 4710   3.630   3.510   1.182  1.5760  0.4074 -0.9729
 1557SOL     OW 4711   2.015   3.910   0.415  0.0752  0.5285 -0.6782
 1557SOL    HW1 4712   2.095   3.962   0.407  0.5817  0.3593  2.2377
 1557SOL    HW2 4713   2.036   3.828   0.371  1.8482  0.1935  0.6659
 1558SOL     OW 4714   2.317   4.770   1.584 -0.1745 -0.1171 -0.0197
 1558SOL    HW1 4715   2.392   4.739   1.635 -0.8770  0.4004  1.3817
 1558SOL    HW2 4716   2.353   4.836   1.525  0.7884 -1.2681 -0.7747
 1559SOL     OW 4717   3.442   4.083   0.943 -0.4172 -0.1168  0.0785
 1559SOL    HW1 4718   3.421   4.104   0.852  0.9171  1.4665  0.0914
 1559SOL    HW2 4719   3.536   4.099   0.950 -0.4376 -0.5299  1.6673
 1560SOL     OW 4720   2.793   3.705   1.219 -0.0170  0.3513 -0.2650
 1560SOL    HW1 4721   2.851   3.742   1.153  0.0572 -0.0931 -0.4551
 1560SOL    HW2 4722   2.784   3.613   1.194 -0.1843  0.2364  0.2052
 1561SOL     OW 4723   3.443   4.404   0.797 -0.4644  0.1574 -0.0912
 1561SOL    HW1 4724   3.491   4.423   0.878 -1.9813 -0.7072  1.0595
 1561SOL    HW2 4725   3.417   4.491   0.765  0.0145  0.5031  0.4224
 1562SOL     OW 4726   3.367   4.156   0.688  0.1978  0.1202  0.1070
 1562SOL    HW1 4727   3.402   4.150   0.599  1.3402  2.3863  0.3428
 1562SOL    HW2 4728   3.401   4.239   0.722 -0.0612 -0.7609  2.7359
 1563SOL     OW 4729   3.875   2.070   0.008  0.4134  0.2105 -0.3750
 1563SOL    HW1 4730   3.924   2.025   0.077  0.7468  1.0232 -0.0772
 1563SOL    HW2 4731   3.841   1.999  -0.047 -0.7909 -0.5299  1.2359
 1564SOL     OW 4732   6.115   4.019   2.697 -0.1320 -0.5682  0.4214
 1564SOL    HW1 4733   6.138   4.075   2.623 -0.5586  1.3752  1.6990
 1564SOL    HW2 4734   6.183   4.034   2.762 -0.8334 -0.7130  1.2069
 1565SOL     OW 4735   3.521   4.330   1.847 -0.0527  0.3006 -0.2859
 1565SOL    HW1 4736   3.598   4.278   1.871  1.0059 -0.0591 -3.8350
 1565SOL    HW2 4737   3.536   4.415   1.888  1.8064 -0.0577 -0.1143
 1566SOL     OW 4738   3.325   4.290   2.463 -0.3698 -0.1043  0.2401
 1566SOL    HW1 4739   3.329   4.386   2.460 -0.4394 -0.1011  0.2597
 1566SOL    HW2 4740   3.360   4.262   2.378 -0.2713 -0.0642  0.2665
 1567SOL     OW 4741   1.272   1.560   0.436 -0.4330  0.5056 -0.1393
 1567SOL    HW1 4742   1.198   1.615   0.460  0.4111  0.4001  3.0510
 1567SOL    HW2 4743   1.342   1.622   0.415 -0.8218  0.5927 -1.2603
 1568SOL     OW 4744   1.886   4.185   2.485 -0.1173  0.3869 -0.5716
 1568SOL    HW1 4745   1.977   4.167   2.510 -0.1676 -0.2546 -0.8187
 1568SOL    HW2 4746   1.890   4.268   2.438  0.1566  0.9860  0.4717
 1569SOL     OW 4747   2.475   3.754   2.527 -0.3083 -0.2708  0.1323
 1569SOL    HW1 4748   2.493   3.848   2.536  0.0080 -0.4285  1.3878
 1569SOL    HW2 4749   2.547   3.711   2.572 -0.8407 -1.0890  0.2333
 1570SOL     OW 4750   0.834   2.037   0.065  0.1763 -0.3213  0.1116
 1570SOL    HW1 4751   0.829   2.115   0.120 -0.7822 -0.8098  0.7331
 1570SOL    HW2 4752   0.816   1.965   0.124  0.8478 -1.0066 -0.5035
 1571SOL     OW 4753   2.162   4.175   2.562  0.5656 -0.1469 -0.2843
 1571SOL    HW1 4754   2.246   4.174   2.516  0.5005  0.6063 -0.4353
 1571SOL    HW2 4755   2.174   4.240   2.631 -0.7954  2.2228 -2.1105
 1572SOL     OW 4756   3.572   4.474   2.244 -0.6572  0.0712  0.3165
 1572SOL    HW1 4757   3.506   4.412   2.212 -1.0992  0.5692  0.2695
 1572SOL    HW2 4758   3.544   4.496   2.333 -1.3057  1.3196 -0.1749
 1573SOL     OW 4759   2.344   3.883   3.001 -0.1609 -0.0234 -0.3420
 1573SOL    HW1 4760   2.422   3.892   2.946  0.3398  0.2764  0.4049
 1573SOL    HW2 4761   2.278   3.937   2.957  0.8946  2.1114  0.5335
 1574SOL     OW 4762   3.015   4.082   2.882 -0.5845 -0.1747  0.5328
 1574SOL    HW1 4763   3.031   4.137   2.959  0.0133  0.9391 -0.3605
 1574SOL    HW2 4764   3.090   4.098   2.825 -1.1903 -0.7216 -0.4498
 1575SOL     OW 4765   3.133   3.923   2.453  0.1273 -0.0899  0.1594
 1575SOL    HW1 4766   3.150   3.960   2.367  0.5079  0.2594  0.3826
 1575SOL    HW2 4767   3.090   3.993   2.501 -3.6623 -1.4129 -0.9060
 1576SOL     OW 4768   2.806   3.756   2.384  0.1841 -0.2216  0.1156
 1576SOL    HW1 4769   2.871   3.686   2.397  0.7869  0.1678 -0.6847
 1576SOL    HW2 4770   2.754   3.756   2.464 -0.6510 -2.4416 -0.3429
 1577SOL     OW 4771   1.401   1.850   0.413  0.1330  0.1212 -0.2324
 1577SOL    HW1 4772   1.340   1.873   0.483  0.1780 -0.0378 -0.1427
 1577SOL    HW2 4773   1.362   1.890   0.335 -0.2520 -0.2446 -0.2337
 1578SOL     OW 4774   2.225   3.770   2.658  0.1818  0.1615 -0.1289
 1578SOL    HW1 4775   2.246   3.817   2.739  0.5957  0.2548 -0.2906
 1578SOL    HW2 4776   2.309   3.750   2.619  0.0122 -0.8029 -0.0232
 1579SOL     OW 4777   2.398   3.855   2.281 -0.2608  0.4532 -0.0583
 1579SOL    HW1 4778   2.377   3.936   2.328 -1.3121  0.7742 -1.0239
 1579SOL    HW2 4779   2.403   3.788   2.350  0.2386  1.2526  0.7120
 1580SOL     OW 4780   2.606   3.971   2.165 -0.1604  0.4260  0.0033
 1580SOL    HW1 4781   2.662   3.995   2.239  1.5040 -2.6228 -0.1157
 1580SOL    HW2 4782   2.532   3.925   2.205  0.8625 -1.4422 -0.1389
 1581SOL     OW 4783   3.661   2.110   0.172  0.0658 -0.5541 -0.3118
 1581SOL    HW1 4784   3.717   2.091   0.097  0.1417 -0.2272 -0.3394
 1581SOL    HW2 4785   3.720   2.112   0.247  0.3903  1.4552 -0.5581
 1582SOL     OW 4786   4.266   1.800   0.144 -0.0511  0.4910 -0.1982
 1582SOL    HW1 4787   4.277   1.774   0.236 -1.5560 -2.2285 -0.6685
 1582SOL    HW2 4788   4.353   1.788   0.105  0.0932 -0.6418  0.4129
 1583SOL     OW 4789   2.592   3.860   2.867 -0.1004  0.3893  0.1583
 1583SOL    HW1 4790   2.575   3.910   2.787 -2.4385 -2.3682 -1.2620
 1583SOL    HW2 4791   2.679   3.824   2.855 -0.4742 -0.0944 -1.2745
 1584SOL     OW 4792   0.832   1.703   0.048  0.3135 -0.2702  0.0246
 1584SOL    HW1 4793   0.747   1.660   0.060 -0.2350  0.9011  0.4837
 1584SOL    HW2 4794   0.818   1.765  -0.023  0.5525  0.5113  0.6506
 1585SOL     OW 4795   2.555   4.324   1.976 -0.0107 -0.2857  0.3265
 1585SOL    HW1 4796   2.558   4.342   1.882  2.7038  2.1814  0.7417
 1585SOL    HW2 4797   2.641   4.288   1.996 -0.0577  0.4684  2.0624
 1586SOL     OW 4798   2.711   4.257   3.081  0.2857 -0.0016  0.3255
 1586SOL    HW1 4799   2.806   4.249   3.091  0.2215  0.3098  1.3794
 1586SOL    HW2 4800   2.679   4.166   3.085  0.5564 -0.1270 -0.3072
 1587SOL     OW 4801   2.278   3.224   2.718 -0.2610  0.3166 -0.1930
 1587SOL    HW1 4802   2.269   3.214   2.624 -0.6650  0.6195 -0.1931
 1587SOL    HW2 4803   2.191   3.203   2.753 -0.8549  2.5857 -0.1175
 1588SOL     OW 4804   3.430   4.223   2.227  0.0811 -0.3966  0.2520
 1588SOL    HW1 4805   3.472   4.158   2.171  1.4184  1.1530 -0.6449
 1588SOL    HW2 4806   3.359   4.259   2.173  1.7432  1.5181 -0.7819
 1589SOL     OW 4807   3.249   3.721   2.028  0.3095 -0.1384 -0.1361
 1589SOL    HW1 4808   3.287   3.654   1.972  0.2984 -0.5659  0.3611
 1589SOL    HW2 4809   3.321   3.749   2.085 -0.0915 -0.8991  0.7593
 1590SOL     OW 4810   2.213   4.013   2.803  0.1684 -0.0258 -0.2313
 1590SOL    HW1 4811   2.124   4.041   2.823  0.2696 -0.1088  0.3375
 1590SOL    HW2 4812   2.226   4.039   2.711 -0.2253  0.5255 -0.1335
 1591SOL     OW 4813   2.657   4.728   3.024 -0.9516  0.0013 -0.3780
 1591SOL    HW1 4814   2.747   4.698   3.010 -1.1410 -1.0147  0.4722
 1591SOL    HW2 4815   2.667   4.817   3.057 -0.2440 -0.1347 -0.2024
 1592SOL     OW 4816   3.624   2.398   0.045  0.1130  1.1322 -0.0181
 1592SOL    HW1 4817   3.538   2.383   0.005  0.5140 -0.2125 -0.4242
 1592SOL    HW2 4818   3.645   2.316   0.089  1.6577  1.0586 -0.8271
 1593SOL     OW 4819   3.196   4.295   2.076 -0.1452 -0.4826  0.8695
 1593SOL    HW1 4820   3.188   4.388   2.055 -1.6617 -0.3857  1.7654
 1593SOL    HW2 4821   3.179   4.251   1.993 -0.5574  0.0069  0.6894
 1594SOL     OW 4822   1.427   2.083   0.042  0.0622 -0.6216  0.3559
 1594SOL    HW1 4823   1.514   2.073   0.079  0.2251  1.2841  0.5892
 1594SOL    HW2 4824   1.369   2.090   0.118 -0.1477 -0.7955  0.2135
 1595SOL     OW 4825   3.587   3.978   2.138 -0.1489  0.1368 -0.2391
 1595SOL    HW1 4826   3.520   3.972   2.069 -2.1394  0.9254  1.5286
 1595SOL    HW2 4827   3.574   3.899   2.191  0.5263  0.1680 -0.0138
 1596SOL     OW 4828   3.517   3.727   2.991 -0.6089  0.2453 -0.5092
 1596SOL    HW1 4829   3.512   3.818   3.019  0.9133  0.9304 -2.1920
 1596SOL    HW2 4830   3.428   3.704   2.967 -1.2203  0.8873  1.0215
 1597SOL     OW 4831   6.057   3.769   2.602 -0.6800  0.1476  0.2022
 1597SOL    HW1 4832   6.111   3.710   2.655  1.4394  0.2869 -1.6478
 1597SOL    HW2 4833   6.050   3.849   2.653  0.2410 -0.1620  0.8378
 1598SOL     OW 4834   2.701   3.671   2.640  0.7011  0.0178 -0.2787
 1598SOL    HW1 4835   2.697   3.575   2.641 -0.3235  0.0469  0.4883
 1598SOL    HW2 4836   2.768   3.692   2.705  2.7681 -0.1951 -2.2268
 1599SOL     OW 4837   2.047   4.385   1.973 -0.0435  0.3956  0.1833
 1599SOL    HW1 4838   2.123   4.435   2.001 -0.4193  1.2246 -0.2574
 1599SOL    HW2 4839   2.061   4.371   1.879 -1.0627  1.6958 -0.1836
 1600SOL     OW 4840   1.768   3.775   2.133 -0.6200  0.2364  0.2605
 1600SOL    HW1 4841   1.733   3.857   2.168  1.4377  1.4727 -0.4182
 1600SOL    HW2 4842   1.847   3.759   2.184  0.4758  0.1548 -1.3973
 1601SOL     OW 4843   3.236   4.121   2.683  0.2158 -0.4422  0.2963
 1601SOL    HW1 4844   3.320   4.078   2.697  1.2186  1.1646 -0.5947
 1601SOL    HW2 4845   3.247   4.173   2.604 -1.1921  0.8559  0.8825
 1602SOL     OW 4846   2.312   4.186   2.048  0.0972  0.1290 -0.2892
 1602SOL    HW1 4847   2.402   4.216   2.037  0.6410 -0.8471  1.1337
 1602SOL    HW2 4848   2.278   4.240   2.120  0.5169 -1.3972  1.1105
 1603SOL     OW 4849   2.848   3.754   2.096 -0.1258 -0.2039  0.4332
 1603SOL    HW1 4850   2.760   3.791   2.093  0.2661  0.7033 -0.6736
 1603SOL    HW2 4851   2.881   3.777   2.183 -0.1281  1.5787  0.0033
 1604SOL     OW 4852   2.815   4.207   2.754  0.5303 -0.4135  0.0686
 1604SOL    HW1 4853   2.878   4.160   2.809  0.6140 -1.5828 -0.9656
 1604SOL    HW2 4854   2.756   4.138   2.724  1.2091 -0.0445 -2.2704
 1605SOL     OW 4855   3.753   3.781   2.828 -0.7826  0.0995  0.2718
 1605SOL    HW1 4856   3.681   3.793   2.889 -1.0111 -2.7579  0.7016
 1605SOL    HW2 4857   3.802   3.706   2.862 -0.2574 -0.9037 -2.4210
 1606SOL     OW 4858   4.115   4.294   0.996 -0.2839 -0.3428 -0.2506
 1606SOL    HW1 4859   4.114   4.268   0.904 -1.8083  2.6336 -1.2209
 1606SOL    HW2 4860   4.195   4.345   1.006 -0.3253 -0.3167 -0.0460
 1607SOL     OW 4861   3.786   4.816   0.812  0.4862 -0.4402 -0.2108
 1607SOL    HW1 4862   3.835   4.734   0.826  0.8824 -0.3240 -0.8872
 1607SOL    HW2 4863   3.706   4.804   0.863  1.5264 -0.3341  1.5474
 1608SOL     OW 4864   4.080   1.182   0.978 -0.7579 -0.0287  0.1415
 1608SOL    HW1 4865   4.094   1.137   0.895 -1.8814  1.1491 -0.7143
 1608SOL    HW2 4866   4.016   1.251   0.959 -2.0681 -0.5388  2.2453
 1609SOL     OW 4867   3.625   1.446   0.948  0.2928 -0.2533  0.5946
 1609SOL    HW1 4868   3.598   1.456   0.857 -1.9885  0.4132  1.2747
 1609SOL    HW2 4869   3.606   1.355   0.969  0.7381 -0.3840  0.4455
 1610SOL     OW 4870   4.248   4.667   1.703 -0.5586 -0.0904  0.1943
 1610SOL    HW1 4871   4.240   4.639   1.794  2.5051  0.3766  0.7142
 1610SOL    HW2 4872   4.223   4.591   1.652  2.2534 -2.0902  1.5240
 1611SOL     OW 4873   3.591   1.468   0.668  0.4282 -0.4825 -0.5487
 1611SOL    HW1 4874   3.517   1.526   0.683  0.2222 -0.7564 -0.4984
 1611SOL    HW2 4875   3.567   1.418   0.590 -0.3487 -2.0001  0.5929
 1612SOL     OW 4876   3.639   1.106   0.577  0.4709 -0.8093  0.0085
 1612SOL    HW1 4877   3.702   1.169   0.610 -1.6165  1.1475  0.4946
 1612SOL    HW2 4878   3.672   1.083   0.490  1.3189  0.9169 -0.1620
 1613SOL     OW 4879   3.846   1.366   0.651  0.4792  0.2944  0.2334
 1613SOL    HW1 4880   3.889   1.446   0.681 -0.1101  1.4604 -1.7914
 1613SOL    HW2 4881   3.752   1.384   0.663  0.1882  0.9749 -2.4288
 1614SOL     OW 4882   3.812   0.790   0.753  0.0119 -0.3666 -0.0873
 1614SOL    HW1 4883   3.756   0.764   0.679  0.4124 -0.5223 -0.3414
 1614SOL    HW2 4884   3.842   0.707   0.789 -1.0592 -0.3291  0.9470
 1615SOL     OW 4885   3.942   5.169   1.865 -0.1293  0.1540 -0.3440
 1615SOL    HW1 4886   4.013   5.166   1.929 -0.3376  0.2541 -0.1062
 1615SOL    HW2 4887   3.963   5.243   1.809  0.6604 -0.6320 -1.1051
 1616SOL     OW 4888   4.221   5.090   1.108 -0.5933  0.0084 -0.3229
 1616SOL    HW1 4889   4.239   5.038   1.186  1.4524  2.4590  0.9791
 1616SOL    HW2 4890   4.276   5.052   1.040 -0.5366 -0.6445  0.0828
 1617SOL     OW 4891   4.115   4.161   1.525 -0.7665  0.6394  0.3787
 1617SOL    HW1 4892   4.068   4.156   1.442 -3.5628 -3.2080  1.9217
 1617SOL    HW2 4893   4.047   4.155   1.592  1.5419  1.4349  2.9862
 1618SOL     OW 4894   4.397   1.160   0.672  0.5239  0.2014 -0.0290
 1618SOL    HW1 4895   4.414   1.163   0.578 -2.6404  1.3535 -0.6750
 1618SOL    HW2 4896   4.308   1.192   0.682  1.1881  1.4019  3.5390
 1619SOL     OW 4897   3.547   2.096   1.935 -0.0254  0.3977  0.3197
 1619SOL    HW1 4898   3.500   2.179   1.943 -0.4512  0.2185 -0.2287
 1619SOL    HW2 4899   3.505   2.038   1.998 -0.4395  0.2871 -0.0525
 1620SOL     OW 4900   0.269   0.608   0.297  0.0433  0.1416 -0.5371
 1620SOL    HW1 4901   0.308   0.669   0.359 -0.1064  1.1242 -1.3755
 1620SOL    HW2 4902   0.343   0.561   0.259  0.2953  0.8658 -0.9608
 1621SOL     OW 4903   3.791   1.782   0.673  0.4043 -0.5755 -0.3385
 1621SOL    HW1 4904   3.818   1.864   0.713  1.2006 -1.0753  0.1985
 1621SOL    HW2 4905   3.696   1.788   0.666  0.2808 -0.2711  1.2200
 1622SOL     OW 4906   4.014   5.436   1.706 -0.3422 -0.3100  0.4019
 1622SOL    HW1 4907   4.014   5.448   1.611 -0.8191  3.0381  0.6963
 1622SOL    HW2 4908   3.928   5.399   1.725  0.4134 -2.7448 -0.5375
 1623SOL     OW 4909   3.905   4.544   1.414  0.2854  0.3111 -0.0543
 1623SOL    HW1 4910   3.848   4.525   1.488  1.6772 -2.1327  0.5273
 1623SOL    HW2 4911   3.991   4.512   1.441  1.3801  1.5246 -1.8463
 1624SOL     OW 4912   3.575   1.877   1.353 -0.0147 -0.3378  0.2509
 1624SOL    HW1 4913   3.598   1.845   1.441  0.9004 -1.8421 -0.4937
 1624SOL    HW2 4914   3.632   1.828   1.294  0.0325  1.3060 -1.1427
 1625SOL     OW 4915   4.408   0.699   0.913 -0.7472  0.2759  0.1347
 1625SOL    HW1 4916   4.454   0.762   0.858  0.1529  0.1193  0.6784
 1625SOL    HW2 4917   4.476   0.638   0.941 -1.6604 -1.1164 -0.6139
 1626SOL     OW 4918   6.506   2.153   3.025  1.2542  0.0528 -0.8750
 1626SOL    HW1 4919   6.544   2.241   3.033 -1.1991  1.0420  1.3965
 1626SOL    HW2 4920   6.414   2.169   3.003  0.8241 -1.9808 -0.7260
 1627SOL     OW 4921   3.956   4.446   0.501  0.1775 -0.7841  0.1346
 1627SOL    HW1 4922   3.914   4.374   0.455 -3.3617  0.4061  1.1810
 1627SOL    HW2 4923   3.945   4.521   0.442 -0.6133 -0.1288  1.0907
 1628SOL     OW 4924   4.140   1.243   0.652  0.1090 -0.2796  0.1347
 1628SOL    HW1 4925   4.112   1.281   0.569  0.2077  0.2748  0.3551
 1628SOL    HW2 4926   4.078   1.171   0.667  0.0682 -0.3646 -0.3963
 1629SOL     OW 4927   4.096   4.760   1.189  0.5697  0.0816  0.1032
 1629SOL    HW1 4928   4.133   4.779   1.103  0.4510  3.6595  0.6843
 1629SOL    HW2 4929   4.166   4.781   1.251 -0.2630  0.4330  0.9633
 1630SOL     OW 4930   4.418   4.449   1.128 -0.0174  0.1715 -0.3293
 1630SOL    HW1 4931   4.379   4.471   1.043 -1.8243 -1.0844  0.1052
 1630SOL    HW2 4932   4.355   4.482   1.192  0.0616 -1.1293  0.4423
 1631SOL     OW 4933   4.306   4.889   1.310  0.6937  0.1828 -0.0166
 1631SOL    HW1 4934   4.391   4.909   1.270  0.5403 -1.3430 -1.2188
 1631SOL    HW2 4935   4.299   4.949   1.384  1.4826  2.4445 -1.6611
 1632SOL     OW 4936   3.364   1.566   1.189  0.0104 -0.2863  0.0725
 1632SOL    HW1 4937   3.454   1.570   1.222  0.4645 -1.3284 -0.9869
 1632SOL    HW2 4938   3.314   1.621   1.250  0.8917 -1.6738  2.1543
 1633SOL     OW 4939   4.029   0.988   0.778  0.3106 -0.6907 -0.7170
 1633SOL    HW1 4940   4.100   0.961   0.720 -0.2306  0.9054 -2.2084
 1633SOL    HW2 4941   3.963   0.919   0.770  1.4951 -2.0015  0.4020
 1634SOL     OW 4942   4.690   0.680   0.799  0.0385 -0.1839 -0.6388
 1634SOL    HW1 4943   4.721   0.765   0.830 -2.1452  0.6708 -0.6286
 1634SOL    HW2 4944   4.701   0.622   0.874  0.0310  0.4970 -0.1004
 1635SOL     OW 4945   4.111   1.466   1.492 -1.0649 -0.0196 -0.1001
 1635SOL    HW1 4946   4.120   1.519   1.571 -1.0829  0.6312 -0.5265
 1635SOL    HW2 4947   4.148   1.381   1.515  2.1007  1.1431 -0.4019
 1636SOL     OW 4948   4.547   0.985   1.373 -0.2626  0.1019 -0.3270
 1636SOL    HW1 4949   4.536   0.941   1.289 -0.5308  1.3520 -0.9537
 1636SOL    HW2 4950   4.495   1.064   1.367  0.5832  0.7620  0.6161
 1637SOL     OW 4951   4.232   3.971   1.731  0.4823  0.3724 -0.2520
 1637SOL    HW1 4952   4.177   3.919   1.673 -0.3247 -1.0237  1.6766
 1637SOL    HW2 4953   4.273   4.036   1.673 -1.4308  0.0322 -2.1031
 1638SOL     OW 4954   4.207   1.024   1.171 -0.1453 -0.8469  0.1556
 1638SOL    HW1 4955   4.180   1.069   1.091  1.0424 -0.0774  0.1559
 1638SOL    HW2 4956   4.233   0.937   1.142  1.1686 -0.2717 -0.4666
 1639SOL     OW 4957   4.299   4.485   1.391 -0.3642  0.5397  0.2800
 1639SOL    HW1 4958   4.371   4.545   1.410  0.0099 -0.3566  1.8254
 1639SOL    HW2 4959   4.255   4.473   1.475 -1.7878  0.3725 -0.4698
 1640SOL     OW 4960   3.625   1.560   1.244 -0.2812 -0.5729 -0.5024
 1640SOL    HW1 4961   3.613   1.537   1.152 -0.7124  0.0037 -0.6021
 1640SOL    HW2 4962   3.694   1.626   1.243  0.7387 -1.6074 -0.2525
 1641SOL     OW 4963   3.910   4.190   0.699  0.3945 -0.7597 -0.0036
 1641SOL    HW1 4964   3.851   4.266   0.698  0.6244 -0.5857 -1.0108
 1641SOL    HW2 4965   3.894   4.146   0.615  1.2971 -1.0262 -0.0406
 1642SOL     OW 4966   4.072   5.450   1.971 -0.0223 -0.0204 -0.2964
 1642SOL    HW1 4967   4.053   5.451   1.877  1.2192 -0.2159 -0.5741
 1642SOL    HW2 4968   4.149   5.393   1.979 -0.1104 -0.0051  0.8408
 1643SOL     OW 4969   4.544   0.934   1.097 -0.1275  0.1746  0.1685
 1643SOL    HW1 4970   4.628   0.979   1.087 -0.2386  0.3704  0.1168
 1643SOL    HW2 4971   4.502   0.942   1.012  0.3395 -1.0306 -0.1890
 1644SOL     OW 4972   4.578   4.798   0.982 -0.5159  0.2025 -0.5183
 1644SOL    HW1 4973   4.648   4.770   1.041 -1.3594 -0.1487  0.3457
 1644SOL    HW2 4974   4.565   4.724   0.924 -0.8272 -0.1169 -0.0491
 1645SOL     OW 4975   3.347   1.635   0.710 -0.4500  0.2503 -0.5649
 1645SOL    HW1 4976   3.305   1.625   0.796 -1.9647  0.3213 -1.2638
 1645SOL    HW2 4977   3.315   1.561   0.659  0.9439 -0.1483 -0.8934
 1646SOL     OW 4978   3.874   4.583   1.073  0.0938 -0.4193 -0.3583
 1646SOL    HW1 4979   3.906   4.673   1.076  1.2564 -0.8322  0.7840
 1646SOL    HW2 4980   3.879   4.558   0.981  1.9604 -0.0470 -0.3859
 1647SOL     OW 4981   4.140   4.427   1.588 -0.2664  0.2248 -0.1611
 1647SOL    HW1 4982   4.133   4.334   1.570  2.8260 -0.7850  2.8971
 1647SOL    HW2 4983   4.075   4.444   1.656  1.8820 -0.8258  2.3246
 1648SOL     OW 4984   4.722   1.044   0.671 -0.0152 -0.0385  0.1314
 1648SOL    HW1 4985   4.709   1.139   0.674  0.8575  0.0729  1.7481
 1648SOL    HW2 4986   4.816   1.033   0.689  0.0754 -1.1857 -0.9074
 1649SOL     OW 4987   3.770   1.848   1.864 -0.8123 -0.0960 -0.4500
 1649SOL    HW1 4988   3.736   1.817   1.948 -2.4100  0.7332 -0.7422
 1649SOL    HW2 4989   3.864   1.856   1.877 -1.1684  1.3770  1.7247
 1650SOL     OW 4990   4.367   0.555   0.507  0.3050  0.4434  0.3150
 1650SOL    HW1 4991   4.450   0.595   0.481  0.2820  0.8017  0.7833
 1650SOL    HW2 4992   4.333   0.517   0.426  0.5956  0.8959 -0.0290
 1651SOL     OW 4993   3.987   0.736   0.998 -0.2269 -0.2390 -0.8127
 1651SOL    HW1 4994   3.949   0.823   1.013 -0.6591 -0.5835  0.1826
 1651SOL    HW2 4995   4.076   0.743   1.031 -0.1868 -0.1058 -0.9481
 1652SOL     OW 4996   3.846   1.001   1.111 -0.3635  0.1390  0.3238
 1652SOL    HW1 4997   3.817   0.980   1.200 -0.3403 -0.6122  0.1559
 1652SOL    HW2 4998   3.934   1.037   1.123  1.1073 -3.1549  0.3630
 1653SOL     OW 4999   3.803   2.107   2.107  0.6461  1.0912  0.7307
 1653SOL    HW1 5000   3.740   2.096   2.036  0.9551 -0.8613  0.6851
 1653SOL    HW2 5001   3.888   2.095   2.065  0.7628 -2.5441  1.6766
 1654SOL     OW 5002   3.890   4.552   0.818  0.3718 -0.3402 -0.1826
 1654SOL    HW1 5003   3.975   4.552   0.773  0.1780  2.5888 -0.7825
 1654SOL    HW2 5004   3.827   4.528   0.750  0.4929  0.1042 -0.4638
 1655SOL     OW 5005   3.999   1.134   1.440 -0.0643 -0.1191 -0.4234
 1655SOL    HW1 5006   3.976   1.188   1.364 -2.5692 -0.0784  0.2620
 1655SOL    HW2 5007   4.036   1.054   1.402 -0.5491  0.2285 -1.6749
 1656SOL     OW 5008   4.005   1.843   0.105 -0.1930  0.5944 -0.0782
 1656SOL    HW1 5009   4.090   1.807   0.129 -0.9072 -1.3103 -0.2280
 1656SOL    HW2 5010   3.945   1.769   0.111 -1.5613  1.5185 -1.5164
 1657SOL     OW 5011   3.747   5.423   1.768 -0.6951 -0.0269 -0.2955
 1657SOL    HW1 5012   3.700   5.406   1.686 -1.0598  0.3835 -0.1779
 1657SOL    HW2 5013   3.694   5.490   1.811 -0.6794 -0.4668  0.4219
 1658SOL     OW 5014   3.654   1.803   1.617  0.5767 -0.2535 -0.1431
 1658SOL    HW1 5015   3.662   1.829   1.708  1.0729  0.7104 -0.4536
 1658SOL    HW2 5016   3.742   1.811   1.581  0.4435 -0.8917 -0.6417
 1659SOL     OW 5017   2.723   3.070   2.921 -0.3263  0.2464 -0.6883
 1659SOL    HW1 5018   2.723   3.006   2.850  0.6277  0.0520 -0.5378
 1659SOL    HW2 5019   2.670   3.142   2.889 -1.8431 -0.8095 -0.6672
 1660SOL     OW 5020   4.405   1.344   1.824 -0.5940  0.0747 -0.1782
 1660SOL    HW1 5021   4.363   1.372   1.906  0.4429 -1.4048  0.9184
 1660SOL    HW2 5022   4.471   1.280   1.852 -1.6856 -2.1719 -2.3344
 1661SOL     OW 5023   3.666   1.020   0.898 -0.0010  0.2167 -0.4534
 1661SOL    HW1 5024   3.711   1.045   0.979 -1.3626 -2.7232  1.3526
 1661SOL    HW2 5025   3.724   0.956   0.857  0.0348  0.6753 -1.1436
 1662SOL     OW 5026   4.590   5.333   1.812  0.1312 -0.1444 -0.1304
 1662SOL    HW1 5027   4.641   5.408   1.841  2.0621 -1.6648  0.6055
 1662SOL    HW2 5028   4.641   5.294   1.742 -0.1447 -1.5080  0.3848
 1663SOL     OW 5029   4.080   4.710   0.656  0.4099  0.5453 -0.2257
 1663SOL    HW1 5030   4.126   4.691   0.574 -3.5415 -1.5058 -2.2292
 1663SOL    HW2 5031   3.999   4.752   0.629 -0.6180  0.6953  2.7492
 1664SOL     OW 5032   4.342   4.936   1.708  0.7624  0.3105  0.1763
 1664SOL    HW1 5033   4.391   4.910   1.785  1.3866 -0.8402 -0.5865
 1664SOL    HW2 5034   4.281   4.864   1.691 -1.1094  1.6158  0.9828
 1665SOL     OW 5035   3.989   1.325   0.433 -0.3359 -0.2809 -0.4009
 1665SOL    HW1 5036   3.926   1.314   0.362 -2.2010  1.9138  0.7366
 1665SOL    HW2 5037   3.935   1.353   0.507  1.4515 -2.8449  2.0713
 1666SOL     OW 5038   4.302   4.886   2.015  0.6244 -0.5026  0.8674
 1666SOL    HW1 5039   4.344   4.947   2.075  0.9893 -0.5350  0.6516
 1666SOL    HW2 5040   4.353   4.805   2.023 -0.1921 -0.9612  1.5642
 1667SOL     OW 5041   3.968   4.504   2.710 -0.2830 -0.5974 -0.8136
 1667SOL    HW1 5042   3.957   4.417   2.749 -1.3478  0.2377  0.9018
 1667SOL    HW2 5043   3.886   4.549   2.728  0.4136  0.9234 -1.2389
 1668SOL     OW 5044   3.748   4.976   2.375 -0.0863 -0.8608 -0.4442
 1668SOL    HW1 5045   3.784   5.012   2.456 -1.7771 -0.9287  0.3708
 1668SOL    HW2 5046   3.740   5.052   2.317 -1.1568 -0.3610  0.3339
 1669SOL     OW 5047   4.163   5.384   2.289  0.1738 -0.3337 -0.1353
 1669SOL    HW1 5048   4.213   5.444   2.235  0.0318 -0.5011 -0.4518
 1669SOL    HW2 5049   4.141   5.435   2.368  0.4887 -0.1347 -0.1765
 1670SOL     OW 5050   3.906   5.408   2.980 -0.0603  0.5399  0.1377
 1670SOL    HW1 5051   3.957   5.468   3.034 -0.4594  1.3686 -0.3792
 1670SOL    HW2 5052   3.816   5.437   2.991 -0.3503 -0.4600  0.4786
 1671SOL     OW 5053   4.046   2.072   2.340  0.2159  0.0562  0.0920
 1671SOL    HW1 5054   4.006   2.014   2.406  0.2480  0.7769  0.7661
 1671SOL    HW2 5055   4.117   2.116   2.387 -0.2728  1.1768 -0.1882
 1672SOL     OW 5056   3.319   1.935   1.992  0.3537  0.3099 -0.3599
 1672SOL    HW1 5057   3.262   2.011   1.984 -0.5207 -0.3414 -0.5068
 1672SOL    HW2 5058   3.290   1.891   2.072 -0.5800 -0.9865 -1.3476
 1673SOL     OW 5059   3.372   5.779   2.495 -0.1954  0.5011 -0.1124
 1673SOL    HW1 5060   3.467   5.790   2.501 -0.2528  1.9187 -1.1521
 1673SOL    HW2 5061   3.358   5.746   2.406 -0.7009  0.7598 -0.1299
 1674SOL     OW 5062   3.990   4.928   2.247  0.4362 -0.1292 -0.0466
 1674SOL    HW1 5063   4.018   4.880   2.170  0.7777 -0.3886  0.2353
 1674SOL    HW2 5064   3.897   4.945   2.233  0.3803 -0.6181 -0.2818
 1675SOL     OW 5065   3.769   5.764   1.963  0.2095  0.6498 -0.5290
 1675SOL    HW1 5066   3.779   5.848   2.008  2.3482 -0.0514  0.4274
 1675SOL    HW2 5067   3.677   5.763   1.934 -0.1457  2.8410  0.3381
 1676SOL     OW 5068   4.178   5.169   2.009  0.1819 -0.2072  0.0592
 1676SOL    HW1 5069   4.235   5.101   1.975  1.1940  1.2593 -1.3415
 1676SOL    HW2 5070   4.234   5.221   2.066  0.2291  1.0636 -1.0886
 1677SOL     OW 5071   3.944   5.497   2.453 -0.5637 -0.4314  0.2789
 1677SOL    HW1 5072   3.970   5.575   2.404 -0.7409 -0.7760 -0.3829
 1677SOL    HW2 5073   4.012   5.486   2.519  0.4678 -0.7749 -0.8134
 1678SOL     OW 5074   4.866   4.671   1.792  0.9141  0.4330 -0.0364
 1678SOL    HW1 5075   4.876   4.632   1.879 -0.0702  0.8602  0.2782
 1678SOL    HW2 5076   4.919   4.615   1.735  1.0897 -0.2098  0.7301
 1679SOL     OW 5077   3.756   1.674   2.085  0.1536  0.0270  0.3200
 1679SOL    HW1 5078   3.700   1.693   2.160 -0.2858  1.5662 -0.3497
 1679SOL    HW2 5079   3.831   1.733   2.094 -0.3499  0.9069 -0.8948
 1680SOL     OW 5080   3.943   5.683   2.201 -0.0519 -0.2575  0.5320
 1680SOL    HW1 5081   3.891   5.676   2.121  1.7779 -1.1670 -0.6557
 1680SOL    HW2 5082   4.008   5.750   2.181 -0.3143  0.3582  1.7100
 1681SOL     OW 5083   3.940   4.941   1.699 -0.0583 -0.2200  0.2976
 1681SOL    HW1 5084   3.980   4.894   1.773 -0.7976 -1.6704 -0.1896
 1681SOL    HW2 5085   3.968   5.032   1.711  2.5859 -0.9694  0.5015
 1682SOL     OW 5086   4.094   4.520   1.943  0.2863  0.2695 -0.5441
 1682SOL    HW1 5087   4.086   4.426   1.928 -0.9728  0.5889 -2.0982
 1682SOL    HW2 5088   4.060   4.533   2.032  0.8881 -0.7730 -0.1397
 1683SOL     OW 5089   4.508   4.672   2.238 -0.0109  0.3643  0.2706
 1683SOL    HW1 5090   4.533   4.588   2.276  1.0058  0.2234 -0.6852
 1683SOL    HW2 5091   4.493   4.653   2.146  1.0326  1.3957 -0.1234
 1684SOL     OW 5092   4.460   4.662   1.946 -0.1456 -0.2054  0.4604
 1684SOL    HW1 5093   4.492   4.681   1.857  0.2007  0.5096  0.7292
 1684SOL    HW2 5094   4.482   4.570   1.960 -0.9056 -0.5457 -0.4850
 1685SOL     OW 5095   3.522   5.491   2.437  0.1325 -0.2090 -0.0810
 1685SOL    HW1 5096   3.589   5.425   2.453  0.6513  0.3262 -0.0032
 1685SOL    HW2 5097   3.504   5.484   2.343 -0.6863 -1.2633  0.1344
 1686SOL     OW 5098   1.925   3.098   0.089 -0.6668 -0.2509 -0.2014
 1686SOL    HW1 5099   1.868   3.103   0.013 -0.5853  0.9895 -0.1964
 1686SOL    HW2 5100   1.969   3.013   0.081 -0.3371  0.0411 -1.7590
 1687SOL     OW 5101   3.388   5.448   2.907  0.1334 -0.2107 -0.2981
 1687SOL    HW1 5102   3.385   5.459   2.812  0.4035  2.5796 -0.0761
 1687SOL    HW2 5103   3.298   5.427   2.932 -0.0651 -0.3402 -1.0897
 1688SOL     OW 5104   3.639   5.758   2.402 -0.1662 -0.2451 -0.4528
 1688SOL    HW1 5105   3.593   5.673   2.405 -1.3941  0.3669 -0.9882
 1688SOL    HW2 5106   3.674   5.763   2.314  0.2595 -0.3630 -0.2929
 1689SOL     OW 5107   4.113   4.822   2.530 -0.2833  0.3536  0.5234
 1689SOL    HW1 5108   4.051   4.835   2.459 -1.3638 -1.0782  1.1614
 1689SOL    HW2 5109   4.196   4.854   2.495 -1.1389  1.2903 -0.7354
 1690SOL     OW 5110   3.954   6.183   2.992 -0.2458 -0.1016  0.4064
 1690SOL    HW1 5111   3.888   6.187   2.923  0.6352 -0.0058 -0.4392
 1690SOL    HW2 5112   4.025   6.132   2.955  1.4525  2.2597  0.1446
 1691SOL     OW 5113   4.269   5.339   2.768 -0.3365  0.5470  0.1895
 1691SOL    HW1 5114   4.284   5.396   2.843 -1.6837  0.0720  0.8452
 1691SOL    HW2 5115   4.349   5.288   2.760 -0.0246  0.8814  1.0559
 1692SOL     OW 5116   4.069   4.163   2.263 -0.0976  1.0766 -0.3067
 1692SOL    HW1 5117   4.073   4.107   2.341 -1.5181 -0.6488 -1.3802
 1692SOL    HW2 5118   4.159   4.170   2.233  0.2949  0.6473  0.7542
 1693SOL     OW 5119   3.965   5.280   2.749 -0.0968  0.3050  0.2982
 1693SOL    HW1 5120   4.058   5.299   2.741 -0.6197  3.3892  0.4057
 1693SOL    HW2 5121   3.934   5.340   2.816 -2.3701  0.1938 -0.5653
 1694SOL     OW 5122   3.812   5.071   2.653  0.0794 -0.3098 -0.0524
 1694SOL    HW1 5123   3.802   5.017   2.731  1.8897 -0.2559  0.2745
 1694SOL    HW2 5124   3.866   5.145   2.681 -2.4014  1.8070 -0.4643
 1695SOL     OW 5125   3.564   5.462   1.993  0.2133  0.1307 -0.7429
 1695SOL    HW1 5126   3.520   5.546   1.980  1.7208  0.7534 -2.0443
 1695SOL    HW2 5127   3.606   5.470   2.079  0.8495  0.9601 -1.1212
 1696SOL     OW 5128   3.907   1.860   2.475 -0.0056 -0.1921  0.3549
 1696SOL    HW1 5129   3.947   1.774   2.462  0.7891  0.2145  0.0238
 1696SOL    HW2 5130   3.825   1.842   2.520 -0.5431 -1.2564 -0.9747
 1697SOL     OW 5131   4.088   4.743   2.817 -0.2944  0.1080 -0.2740
 1697SOL    HW1 5132   4.089   4.783   2.730  1.5790  1.1915  0.1974
 1697SOL    HW2 5133   4.030   4.667   2.807 -0.2649  0.2961 -2.4208
 1698SOL     OW 5134   4.613   5.047   1.787  0.6671  0.1614  0.2385
 1698SOL    HW1 5135   4.633   5.079   1.699 -0.2126 -1.2514 -0.5150
 1698SOL    HW2 5136   4.581   5.123   1.834  1.7599  1.0890 -0.4429
 1699SOL     OW 5137   4.259   1.251   1.604 -0.2433 -0.5702  0.1402
 1699SOL    HW1 5138   4.295   1.284   1.686 -1.3993  0.0014  0.4353
 1699SOL    HW2 5139   4.204   1.177   1.630  3.1422 -3.6409 -0.5842
 1700SOL     OW 5140   4.113   4.562   2.446 -0.0859  0.0329  0.2136
 1700SOL    HW1 5141   4.161   4.633   2.489 -1.0877  1.0338 -0.2665
 1700SOL    HW2 5142   4.046   4.537   2.509  0.0846 -0.2971  0.2656
 1701SOL     OW 5143   3.965   1.822   2.154  0.1804 -0.1592 -0.3733
 1701SOL    HW1 5144   3.948   1.889   2.221 -1.6773 -1.3110  0.3620
 1701SOL    HW2 5145   4.033   1.861   2.099  0.1529  1.7561  0.8471
 1702SOL     OW 5146   4.034   1.441   1.893  0.3805  0.0907  0.0490
 1702SOL    HW1 5147   4.063   1.351   1.907 -0.7535 -0.2963  0.0069
 1702SOL    HW2 5148   3.941   1.440   1.915  0.4379  1.3440  0.4354
 1703SOL     OW 5149   4.245   4.507   2.748 -0.0298 -0.0182 -0.2575
 1703SOL    HW1 5150   4.154   4.534   2.740 -1.0636 -2.6927  1.2401
 1703SOL    HW2 5151   4.254   4.477   2.838  2.1420 -0.4812 -0.5583
 1704SOL     OW 5152   3.915   4.508   1.703  0.3913 -0.3731  0.1515
 1704SOL    HW1 5153   3.867   4.437   1.746 -0.1613  0.5169  1.0492
 1704SOL    HW2 5154   3.904   4.583   1.761 -0.1200  0.8124 -1.4067
 1705SOL     OW 5155   4.062   4.800   1.906 -0.4513 -0.6025  0.4087
 1705SOL    HW1 5156   4.079   4.706   1.899  0.9011 -0.2531 -2.6857
 1705SOL    HW2 5157   4.142   4.835   1.945  0.1815 -0.4974 -0.9293
 1706SOL     OW 5158   3.159   5.712   2.652 -0.1008 -0.3236 -0.2564
 1706SOL    HW1 5159   3.230   5.740   2.593  0.6934 -1.9189 -0.0997
 1706SOL    HW2 5160   3.079   5.726   2.601  0.3326  1.0912 -0.6062
 1707SOL     OW 5161   3.983   4.561   2.191  0.2107 -0.4765 -0.2646
 1707SOL    HW1 5162   3.895   4.590   2.215  0.5286  0.3394 -0.0705
 1707SOL    HW2 5163   4.034   4.567   2.272  0.5938 -0.3524 -0.5112
 1708SOL     OW 5164   4.003   5.007   2.900 -0.1259  0.1258  0.6336
 1708SOL    HW1 5165   4.089   5.047   2.912 -0.7325  1.3015  1.2446
 1708SOL    HW2 5166   4.021   4.917   2.874  1.2873  0.6847 -0.4015
 1709SOL     OW 5167   3.720   5.484   2.231  0.3293 -0.1010  0.2751
 1709SOL    HW1 5168   3.762   5.499   2.315  0.1479 -0.9228  0.5209
 1709SOL    HW2 5169   3.788   5.444   2.176  0.6048  0.9250 -0.1494
 1710SOL     OW 5170   3.467   2.137   0.789 -0.0076  0.1746  0.9904
 1710SOL    HW1 5171   3.460   2.085   0.869 -0.3292 -0.5944  0.4882
 1710SOL    HW2 5172   3.386   2.186   0.785 -0.9711 -1.3950  0.0886
 1711SOL     OW 5173   3.632   2.686   0.801 -0.2513  0.0327 -0.0704
 1711SOL    HW1 5174   3.608   2.597   0.826 -1.4450  0.5070  0.5453
 1711SOL    HW2 5175   3.688   2.675   0.724 -1.3618 -1.2122 -0.7537
 1712SOL     OW 5176   3.973   2.711   0.414  0.1388 -0.1908 -0.3962
 1712SOL    HW1 5177   4.019   2.763   0.479  1.3188 -0.3183 -1.0908
 1712SOL    HW2 5178   4.023   2.723   0.333 -1.5711  0.3930 -1.4418
 1713SOL     OW 5179   4.202   3.457   1.325 -0.5355 -0.3848 -0.0335
 1713SOL    HW1 5180   4.195   3.465   1.230  1.0261 -2.4193 -0.3813
 1713SOL    HW2 5181   4.222   3.365   1.341 -0.8264 -0.1194  2.2869
 1714SOL     OW 5182   3.931   2.173   1.360  0.2351  0.6146  0.0410
 1714SOL    HW1 5183   3.961   2.110   1.295  1.1671  1.6080 -0.5330
 1714SOL    HW2 5184   3.958   2.137   1.444  0.2660 -0.0160 -0.2354
 1715SOL     OW 5185   3.857   3.733   0.730  0.3521  0.5245  0.6321
 1715SOL    HW1 5186   3.799   3.735   0.806  1.3661 -0.2260  1.4557
 1715SOL    HW2 5187   3.943   3.760   0.765  0.6898  0.7898 -0.3773
 1716SOL     OW 5188   3.763   3.053   0.034  0.1094  0.2002  0.1330
 1716SOL    HW1 5189   3.698   2.998  -0.011 -1.1896  0.8170  1.1723
 1716SOL    HW2 5190   3.721   3.139   0.041  0.5378  0.3068  1.8576
 1717SOL     OW 5191   4.102   2.998   0.912  0.0003  0.1953 -0.8244
 1717SOL    HW1 5192   4.190   2.963   0.925  0.4568  1.3919 -0.5866
 1717SOL    HW2 5193   4.112   3.092   0.925 -1.2814  0.3636 -0.9970
 1718SOL     OW 5194   3.759   2.723   1.083  0.1433 -0.5562  0.2113
 1718SOL    HW1 5195   3.800   2.636   1.081 -1.4504 -1.3473  0.2476
 1718SOL    HW2 5196   3.704   2.725   1.005  0.6263  0.6856 -0.1218
 1719SOL     OW 5197   3.813   2.807   1.608  0.6080  0.5922 -0.2756
 1719SOL    HW1 5198   3.892   2.772   1.651  0.7149 -0.3170 -1.1908
 1719SOL    HW2 5199   3.820   2.778   1.517  0.1208  2.0494 -0.8062
 1720SOL     OW 5200   3.668   3.102   1.189 -0.4445 -0.1741  0.0541
 1720SOL    HW1 5201   3.726   3.060   1.126 -1.8395  0.9037 -2.0773
 1720SOL    HW2 5202   3.681   3.195   1.176 -0.4174  0.0996  1.7647
 1721SOL     OW 5203   4.100   2.399   1.947 -0.7825 -0.5687  0.6769
 1721SOL    HW1 5204   4.133   2.456   2.016 -0.0512 -1.2850  0.9423
 1721SOL    HW2 5205   4.093   2.313   1.989  0.3197 -1.1734 -0.2929
 1722SOL     OW 5206   3.855   2.989   1.026  0.1340 -0.0998  0.0859
 1722SOL    HW1 5207   3.940   2.994   0.981  1.0375  0.1285  1.7498
 1722SOL    HW2 5208   3.846   2.897   1.049  0.2227 -0.0180  0.4491
 1723SOL     OW 5209   3.505   3.290   2.079  0.0677  0.2564  0.1120
 1723SOL    HW1 5210   3.471   3.210   2.039 -0.9580  0.9305 -0.4109
 1723SOL    HW2 5211   3.599   3.287   2.063  0.1779 -1.2379  0.8216
 1724SOL     OW 5212   2.485   4.241   2.893  0.2392 -0.4749 -0.5333
 1724SOL    HW1 5213   2.512   4.201   2.811  0.8358  0.9901 -1.0860
 1724SOL    HW2 5214   2.564   4.282   2.928 -0.2735 -0.0363  0.1566
 1725SOL     OW 5215   4.002   1.644   0.602  0.0894  0.4003  0.4225
 1725SOL    HW1 5216   4.045   1.659   0.686 -0.4728 -0.8085  0.9456
 1725SOL    HW2 5217   3.923   1.697   0.605  0.2419  0.6222  0.5183
 1726SOL     OW 5218   4.351   3.643   0.822 -0.2439  0.2306 -0.0129
 1726SOL    HW1 5219   4.395   3.722   0.852  0.3469 -0.1863  0.2431
 1726SOL    HW2 5220   4.423   3.584   0.796 -0.6236 -0.6195  0.8147
 1727SOL     OW 5221   4.087   3.116   1.582 -0.3455  0.1177  0.7008
 1727SOL    HW1 5222   4.166   3.070   1.609  0.3920  1.4874  0.9520
 1727SOL    HW2 5223   4.117   3.203   1.558 -1.8257  0.7589  1.0748
 1728SOL     OW 5224   4.002   2.075   1.645 -0.1787 -0.0688  0.3437
 1728SOL    HW1 5225   3.909   2.092   1.658 -0.2227  0.1875 -0.2876
 1728SOL    HW2 5226   4.026   2.016   1.717 -0.8874 -0.3620  0.3416
 1729SOL     OW 5227   4.020   3.637   1.437  0.1285 -0.1272 -0.1668
 1729SOL    HW1 5228   4.023   3.710   1.376 -1.4318 -0.7429 -1.0512
 1729SOL    HW2 5229   4.073   3.569   1.397  1.2684  0.3597  0.4732
 1730SOL     OW 5230   3.772   2.601   0.553 -0.3861  0.1135 -0.6211
 1730SOL    HW1 5231   3.710   2.562   0.492  2.1221 -3.4269 -1.1901
 1730SOL    HW2 5232   3.836   2.645   0.496 -0.7304  1.1851 -0.2018
 1731SOL     OW 5233   6.302   4.044   2.893  0.0994 -0.0578  0.5571
 1731SOL    HW1 5234   6.296   3.955   2.928 -0.9226 -0.0582  0.4220
 1731SOL    HW2 5235   6.265   4.099   2.963 -1.5662 -0.0114 -0.2926
 1732SOL     OW 5236   3.950   1.899   0.442 -0.1149  0.0202  0.4449
 1732SOL    HW1 5237   4.001   1.860   0.371 -0.7888  0.2599 -0.1825
 1732SOL    HW2 5238   3.978   1.852   0.520  1.9383  0.9320  0.3240
 1733SOL     OW 5239   3.945   2.610   0.751  0.2036 -0.4420 -0.6796
 1733SOL    HW1 5240   3.977   2.700   0.741 -2.2958  0.4573 -1.2436
 1733SOL    HW2 5241   3.887   2.597   0.676  1.5135 -3.0462 -1.3561
 1734SOL     OW 5242   3.690   2.268   1.441 -0.0438  0.1265 -0.0504
 1734SOL    HW1 5243   3.769   2.241   1.394  0.0556 -0.8740  0.6596
 1734SOL    HW2 5244   3.701   2.232   1.529 -2.1575 -1.6951 -0.4597
 1735SOL     OW 5245   3.913   1.894   0.948 -0.3919 -0.0510  0.7829
 1735SOL    HW1 5246   3.980   1.827   0.934  0.1494  0.6372  0.0086
 1735SOL    HW2 5247   3.831   1.844   0.954 -0.4457 -0.6710 -2.7583
 1736SOL     OW 5248   3.895   2.504   1.086 -0.1446 -0.1837  0.6127
 1736SOL    HW1 5249   3.842   2.448   1.030 -1.3290  0.2227  1.2862
 1736SOL    HW2 5250   3.985   2.476   1.070 -0.7106 -2.6549  1.3310
 1737SOL     OW 5251   3.787   3.327   1.501  0.4805  0.2801 -0.0831
 1737SOL    HW1 5252   3.826   3.346   1.416 -1.5841  0.7494 -0.9932
 1737SOL    HW2 5253   3.786   3.231   1.506  0.2691  0.2476 -0.7509
 1738SOL     OW 5254   4.007   2.872   0.692 -0.0783  0.4077 -0.0112
 1738SOL    HW1 5255   3.939   2.918   0.644 -1.1940 -0.7935  0.3551
 1738SOL    HW2 5256   4.007   2.913   0.779 -0.4221  0.3261  0.0271
 1739SOL     OW 5257   3.821   2.367   0.862  0.1060 -0.3032 -0.1564
 1739SOL    HW1 5258   3.889   2.300   0.853  0.0722 -0.4686  0.7386
 1739SOL    HW2 5259   3.865   2.449   0.839  0.7367 -0.3497  0.8454
 1740SOL     OW 5260   4.174   3.371   1.608 -0.4523 -0.9190  0.2461
 1740SOL    HW1 5261   4.148   3.458   1.578 -0.5987 -0.5784  1.3098
 1740SOL    HW2 5262   4.264   3.361   1.577  0.0597  0.1962  1.2609
 1741SOL     OW 5263   4.157   2.632   1.494 -0.7249  0.0110  0.0847
 1741SOL    HW1 5264   4.134   2.552   1.447  2.8061 -0.2705 -1.4536
 1741SOL    HW2 5265   4.149   2.702   1.429  0.5950  0.1666  0.0518
 1742SOL     OW 5266   4.041   1.760   1.440 -0.7111  0.3509  0.5383
 1742SOL    HW1 5267   4.097   1.832   1.410 -0.4032 -0.4059 -0.7996
 1742SOL    HW2 5268   4.098   1.706   1.494 -0.1257 -0.3571 -0.7305
 1743SOL     OW 5269   3.986   2.953   1.364 -0.2812 -0.2710  0.0025
 1743SOL    HW1 5270   4.044   3.008   1.416 -0.9127  0.0664  0.3664
 1743SOL    HW2 5271   4.043   2.912   1.299  0.2567  0.5573 -0.0613
 1744SOL     OW 5272   3.661   1.763   0.991  0.3969  0.1448  0.0244
 1744SOL    HW1 5273   3.639   1.691   0.932 -1.0856  1.7891 -1.5398
 1744SOL    HW2 5274   3.583   1.819   0.992  0.8720  0.9151  2.5156
 1745SOL     OW 5275   3.351   3.686   1.587 -0.2585 -0.1718  0.2115
 1745SOL    HW1 5276   3.349   3.771   1.631  0.5539  0.1281 -0.3103
 1745SOL    HW2 5277   3.441   3.679   1.554 -0.3165 -1.2309  0.2480
 1746SOL     OW 5278   3.513   1.846   0.639  0.1207 -0.5146  0.1092
 1746SOL    HW1 5279   3.445   1.788   0.672 -0.6516  0.0226 -0.4923
 1746SOL    HW2 5280   3.497   1.929   0.684 -0.0700 -0.1812 -0.5660
 1747SOL     OW 5281   4.325   2.757   1.696 -0.1358  0.1157 -0.0948
 1747SOL    HW1 5282   4.324   2.848   1.666 -1.6683  0.9075  2.0345
 1747SOL    HW2 5283   4.260   2.713   1.641 -1.5219  1.0591  0.7346
 1748SOL     OW 5284   4.120   3.189   1.240 -0.4211 -0.3934 -0.2487
 1748SOL    HW1 5285   4.031   3.157   1.255 -0.0403 -1.7039 -0.5529
 1748SOL    HW2 5286   4.125   3.200   1.145  0.7192 -3.7311 -0.7316
 1749SOL     OW 5287   3.609   2.282   1.012  1.2183  0.3601  0.3410
 1749SOL    HW1 5288   3.593   2.201   0.963 -0.6132  0.8355  0.0775
 1749SOL    HW2 5289   3.670   2.332   0.957 -0.7204  0.8436 -1.4749
 1750SOL     OW 5290   4.139   3.634   1.108 -0.3893 -0.7564 -0.1716
 1750SOL    HW1 5291   4.133   3.711   1.165  0.6073 -0.4513 -0.4559
 1750SOL    HW2 5292   4.108   3.665   1.023 -0.1209 -0.7106 -0.2520
 1751SOL     OW 5293   3.493   2.365   1.252 -0.3190  0.1662 -0.2469
 1751SOL    HW1 5294   3.531   2.333   1.171 -1.6699 -1.9233 -0.1311
 1751SOL    HW2 5295   3.558   2.343   1.319 -0.5427 -1.0078 -0.3879
 1752SOL     OW 5296   3.602   2.672   1.709 -0.4860 -0.4686  0.0982
 1752SOL    HW1 5297   3.577   2.709   1.794 -1.9665 -0.3780 -0.3400
 1752SOL    HW2 5298   3.674   2.726   1.679  0.0850 -0.5144  1.2983
 1753SOL     OW 5299   0.091   2.139   0.034  0.2397 -0.9422 -0.0268
 1753SOL    HW1 5300   0.153   2.111  -0.033 -0.8957 -1.5116 -0.8733
 1753SOL    HW2 5301   0.139   2.130   0.116  2.1406  1.0538 -0.7915
 1754SOL     OW 5302   4.051   3.203   1.988  0.2572 -0.6116 -0.5446
 1754SOL    HW1 5303   3.999   3.276   1.953  0.1426 -0.9261 -1.0473
 1754SOL    HW2 5304   4.010   3.183   2.072 -0.9130 -1.3221 -1.2536
 1755SOL     OW 5305   3.816   2.609   0.101 -0.2218  0.5478 -0.1720
 1755SOL    HW1 5306   3.886   2.598   0.036  1.2797  1.1651  1.2933
 1755SOL    HW2 5307   3.749   2.545   0.074  0.8894 -0.0853 -1.5905
 1756SOL     OW 5308   3.748   3.055   1.462  0.7325  0.1377  0.3490
 1756SOL    HW1 5309   3.811   2.990   1.431 -0.5652 -0.8844 -0.2453
 1756SOL    HW2 5310   3.704   3.085   1.383  2.4550  3.0863  0.3758
 1757SOL     OW 5311   3.936   3.446   0.920 -0.5536  0.0530 -0.7152
 1757SOL    HW1 5312   3.927   3.540   0.904 -1.0415  0.3996  1.4260
 1757SOL    HW2 5313   3.856   3.408   0.883 -1.2873  0.7245  0.1569
 1758SOL     OW 5314   3.940   3.233   2.401 -0.4230 -0.5113 -0.1499
 1758SOL    HW1 5315   4.021   3.242   2.450 -0.6306  1.3626 -0.0984
 1758SOL    HW2 5316   3.953   3.155   2.347  1.4380 -0.1961 -0.2082
 1759SOL     OW 5317   3.720   2.145   0.692 -0.5086  0.2066  0.1740
 1759SOL    HW1 5318   3.755   2.225   0.732  0.9139 -1.1810  1.8849
 1759SOL    HW2 5319   3.625   2.154   0.700 -0.3952  1.8956 -0.0532
 1760SOL     OW 5320   3.930   3.348   1.741 -0.1511 -0.0340 -0.1293
 1760SOL    HW1 5321   3.878   3.353   1.660 -1.3115 -1.8595  0.4389
 1760SOL    HW2 5322   4.014   3.313   1.713 -0.7370 -1.1963 -0.5068
 1761SOL     OW 5323   3.753   3.307   0.504  0.0154 -0.0508  0.2392
 1761SOL    HW1 5324   3.802   3.266   0.432 -0.7504 -0.7539  0.0962
 1761SOL    HW2 5325   3.803   3.385   0.526  1.1612 -0.7040  0.0512
 1762SOL     OW 5326   3.867   3.046   1.752 -0.7443  0.2688  0.4934
 1762SOL    HW1 5327   3.952   3.067   1.712 -1.3070  0.9481 -0.3798
 1762SOL    HW2 5328   3.814   3.013   1.680 -0.7418 -1.6950  1.3383
 1763SOL     OW 5329   3.981   3.806   1.699  0.1282  0.2364  0.1248
 1763SOL    HW1 5330   4.004   3.720   1.735  0.6240  0.8963  1.4351
 1763SOL    HW2 5331   3.980   3.792   1.604 -1.3413 -1.5898  0.3429
 1764SOL     OW 5332   4.069   2.903   2.240  0.4160 -0.7024  0.2417
 1764SOL    HW1 5333   4.011   2.959   2.190  2.0569  0.0695 -0.8538
 1764SOL    HW2 5334   4.021   2.820   2.247 -0.5204 -0.3208 -1.2172
 1765SOL     OW 5335   3.405   2.840   0.791 -0.0382  0.0137  0.6847
 1765SOL    HW1 5336   3.475   2.775   0.783 -2.3228 -2.7624  1.8100
 1765SOL    HW2 5337   3.409   2.868   0.882 -0.5200 -0.2768  0.7926
 1766SOL     OW 5338   4.322   3.167   1.887 -0.1812  0.1083  0.2596
 1766SOL    HW1 5339   4.230   3.181   1.910 -0.4117  0.5208 -0.8807
 1766SOL    HW2 5340   4.352   3.102   1.951 -1.8414 -1.6489 -0.6490
 1767SOL     OW 5341   4.004   2.414   0.474  0.1704  0.2169  0.3066
 1767SOL    HW1 5342   3.937   2.409   0.542 -0.0593  1.0357  0.1501
 1767SOL    HW2 5343   4.002   2.505   0.445 -0.4313 -0.3236 -1.4958
 1768SOL     OW 5344   4.003   2.446   1.339 -0.1309  0.2180  0.0402
 1768SOL    HW1 5345   3.953   2.482   1.266 -1.2448  2.0219  1.5964
 1768SOL    HW2 5346   3.966   2.359   1.352 -1.4565  0.7267 -0.1680
 1769SOL     OW 5347   3.822   2.998   0.528  0.4042  0.3643 -0.3067
 1769SOL    HW1 5348   3.774   3.066   0.482 -1.1144 -0.5074 -0.0768
 1769SOL    HW2 5349   3.784   2.916   0.497  1.2874 -0.3379  0.3911
 1770SOL     OW 5350   3.390   2.862   2.076  0.4273  0.0621  0.2776
 1770SOL    HW1 5351   3.305   2.864   2.032  0.4464  2.3200  0.2109
 1770SOL    HW2 5352   3.454   2.856   2.005  0.4068  2.3583 -0.0213
 1771SOL     OW 5353   2.125   4.126   0.266  0.4562 -0.2978 -0.1961
 1771SOL    HW1 5354   2.098   4.129   0.175  1.2525 -0.2142 -0.4420
 1771SOL    HW2 5355   2.221   4.135   0.263  0.4772 -0.1220  0.6531
 1772SOL     OW 5356   3.988   2.616   1.778  0.0484 -0.3261  0.5521
 1772SOL    HW1 5357   3.972   2.581   1.690  2.0521 -0.8051  0.3315
 1772SOL    HW2 5358   3.985   2.539   1.835 -0.9696 -0.0555  0.8768
 1773SOL     OW 5359   4.255   3.262   2.523  0.8188  0.5225 -0.5034
 1773SOL    HW1 5360   4.264   3.332   2.588  1.0112 -1.0267  1.2333
 1773SOL    HW2 5361   4.343   3.225   2.515  0.6387  0.2051 -1.0706
 1774SOL     OW 5362   1.780   0.880   0.040  0.4807  0.2956  0.3109
 1774SOL    HW1 5363   1.748   0.953   0.093  2.5288  2.2594 -0.9610
 1774SOL    HW2 5364   1.737   0.891  -0.045  2.7945  1.7974 -0.7747
 1775SOL     OW 5365   3.367   3.716   2.543 -0.4450 -0.1629  0.0995
 1775SOL    HW1 5366   3.326   3.665   2.473 -0.5163 -0.2836  0.2297
 1775SOL    HW2 5367   3.382   3.802   2.504  1.9101 -0.9513 -0.9519
 1776SOL     OW 5368   3.850   3.482   2.823  0.0931 -0.1253 -0.3309
 1776SOL    HW1 5369   3.824   3.493   2.914  0.7385 -1.2367  0.0107
 1776SOL    HW2 5370   3.772   3.449   2.779  0.2808 -1.4172  0.2444
 1777SOL     OW 5371   4.126   3.292   2.942 -0.6180 -0.2669 -0.0695
 1777SOL    HW1 5372   4.047   3.336   2.914  0.0568  0.0750 -1.5126
 1777SOL    HW2 5373   4.122   3.206   2.900  0.3253  0.1907 -1.1418
 1778SOL     OW 5374   3.716   2.913   2.339 -0.6280 -0.1633 -0.0703
 1778SOL    HW1 5375   3.645   2.858   2.307 -0.3356 -0.5492 -0.0684
 1778SOL    HW2 5376   3.795   2.859   2.328 -0.1573  0.7033 -1.2121
 1779SOL     OW 5377   3.965   3.495   2.538 -0.3201 -0.1838  0.7265
 1779SOL    HW1 5378   3.970   3.400   2.543  1.8053 -0.0513  3.4824
 1779SOL    HW2 5379   3.896   3.519   2.600 -0.1322  0.0760  0.8396
 1780SOL     OW 5380   4.638   2.548   2.007  0.3046 -0.1899  0.4295
 1780SOL    HW1 5381   4.694   2.567   1.931  1.1197 -2.5057  0.3874
 1780SOL    HW2 5382   4.549   2.557   1.974  0.6408  0.2868 -0.3831
 1781SOL     OW 5383   3.901   2.686   2.363  0.4459  0.5024  0.6359
 1781SOL    HW1 5384   3.837   2.616   2.374 -0.7462  1.4005 -0.3779
 1781SOL    HW2 5385   3.986   2.641   2.371 -0.2784 -0.9623  0.5238
 1782SOL     OW 5386   4.455   2.251   1.896  0.1194 -0.1209 -0.1635
 1782SOL    HW1 5387   4.473   2.290   1.810  0.6164  0.0042 -0.0091
 1782SOL    HW2 5388   4.368   2.213   1.888 -0.8453  1.9246 -0.0100
 1783SOL     OW 5389   4.589   2.081   2.605  0.3630 -0.0971 -0.5881
 1783SOL    HW1 5390   4.617   2.130   2.527 -0.9025 -1.1030 -1.7281
 1783SOL    HW2 5391   4.496   2.064   2.590 -0.2784  0.9184  1.8551
 1784SOL     OW 5392   4.219   3.982   2.876 -0.6113  0.1215 -0.7728
 1784SOL    HW1 5393   4.284   3.912   2.869 -0.7469 -0.1589  0.5537
 1784SOL    HW2 5394   4.147   3.954   2.820 -0.3985 -0.4903 -0.7421
 1785SOL     OW 5395   3.816   2.867   2.598 -0.2677 -0.4710  0.3043
 1785SOL    HW1 5396   3.870   2.795   2.565 -0.1336 -0.9764  1.5495
 1785SOL    HW2 5397   3.754   2.885   2.527  1.4693  0.0878 -1.1273
 1786SOL     OW 5398   4.216   2.598   2.093 -0.2112  0.4816  0.4790
 1786SOL    HW1 5399   4.277   2.558   2.154  0.4236 -1.3072 -1.2273
 1786SOL    HW2 5400   4.198   2.685   2.130  2.3343  0.5679  1.7150
 1787SOL     OW 5401   4.077   1.571   2.148  0.1244  0.2143  0.1489
 1787SOL    HW1 5402   4.041   1.658   2.161 -1.3880 -0.0811 -1.6330
 1787SOL    HW2 5403   4.120   1.575   2.062 -0.6522 -0.9678 -0.3235
 1788SOL     OW 5404   4.308   1.989   2.594  0.5571  0.0786 -0.4255
 1788SOL    HW1 5405   4.353   1.930   2.533  0.9895 -0.1821  0.1365
 1788SOL    HW2 5406   4.232   1.941   2.624  1.0207 -0.2900  0.1915
 1789SOL     OW 5407   4.119   3.098   2.722 -0.4338 -0.4936  0.1252
 1789SOL    HW1 5408   4.176   3.092   2.645  0.3389 -0.5728  0.6902
 1789SOL    HW2 5409   4.110   3.007   2.752  0.3893 -0.3401  0.9088
 1790SOL     OW 5410   3.843   3.146   2.708  0.0605 -0.0752  0.4929
 1790SOL    HW1 5411   3.938   3.141   2.708  0.0712  0.0236 -0.2408
 1790SOL    HW2 5412   3.815   3.069   2.659 -0.1988  0.3838 -0.0946
 1791SOL     OW 5413   3.965   2.492   3.015  0.7571 -0.0928  0.2012
 1791SOL    HW1 5414   4.038   2.470   3.073  1.1145  2.8709  1.0172
 1791SOL    HW2 5415   3.960   2.587   3.017 -3.2514 -0.1510  0.2871
 1792SOL     OW 5416   4.094   2.434   2.631  0.4913  0.3719  0.0066
 1792SOL    HW1 5417   4.136   2.503   2.580  0.0968 -0.1342 -1.0305
 1792SOL    HW2 5418   4.139   2.435   2.716  2.2138  0.2128 -0.8738
 1793SOL     OW 5419   4.088   2.813   2.727 -0.1736  0.5639  0.6395
 1793SOL    HW1 5420   4.010   2.763   2.754 -0.9737 -0.0008 -2.3283
 1793SOL    HW2 5421   4.158   2.747   2.723 -0.2945  0.4479  0.4039
 1794SOL     OW 5422   3.606   2.574   2.907 -0.5668  0.0312 -0.3101
 1794SOL    HW1 5423   3.522   2.563   2.862 -1.4256 -1.8922  1.5679
 1794SOL    HW2 5424   3.662   2.507   2.869  0.0177  0.9847 -1.2019
 1795SOL     OW 5425   3.868   3.087   2.182 -0.3961  0.1434  0.1025
 1795SOL    HW1 5426   3.799   3.072   2.247 -1.4435  3.2169 -0.1339
 1795SOL    HW2 5427   3.823   3.081   2.098  0.0987  0.0893 -0.1620
 1796SOL     OW 5428   4.088   3.658   2.891  0.0157 -0.0335 -0.2021
 1796SOL    HW1 5429   4.019   3.600   2.859 -0.7755  1.3210 -1.0529
 1796SOL    HW2 5430   4.102   3.630   2.982 -1.0279 -0.9044 -0.2854
 1797SOL     OW 5431   4.398   2.589   1.898  0.1048  0.1363  0.3713
 1797SOL    HW1 5432   4.372   2.659   1.838 -0.9889 -1.4952 -1.1933
 1797SOL    HW2 5433   4.319   2.570   1.949 -0.1177 -0.9966 -0.3514
 1798SOL     OW 5434   4.198   2.262   1.719  0.0351  0.3423  0.9154
 1798SOL    HW1 5435   4.162   2.320   1.786 -0.9175 -0.9001  1.5447
 1798SOL    HW2 5436   4.132   2.193   1.710  0.6162 -0.0526 -0.5890
 1799SOL     OW 5437   4.414   2.896   2.883  0.1745 -0.0591  0.2149
 1799SOL    HW1 5438   4.439   2.917   2.973  0.5618  1.3892 -0.2110
 1799SOL    HW2 5439   4.365   2.972   2.853 -2.1504 -1.5464 -0.0184
 1800SOL     OW 5440   4.359   2.467   2.307 -0.2806  0.1063 -0.2468
 1800SOL    HW1 5441   4.308   2.386   2.311  0.0634 -0.0922  0.2072
 1800SOL    HW2 5442   4.443   2.440   2.271 -0.3857  0.3785 -0.6984
 1801SOL     OW 5443   4.051   3.696   2.358 -0.0597 -0.1786 -0.4739
 1801SOL    HW1 5444   3.994   3.645   2.415  0.0786  0.6188  0.4007
 1801SOL    HW2 5445   3.992   3.743   2.300 -0.2343 -0.3497 -0.4359
 1802SOL     OW 5446   4.357   3.543   2.428 -0.0392  0.5873 -0.3854
 1802SOL    HW1 5447   4.286   3.507   2.375  0.5143  0.7682 -1.2838
 1802SOL    HW2 5448   4.323   3.543   2.517 -0.5587 -0.8757 -0.5533
 1803SOL     OW 5449   4.719   6.186   2.693  0.3356  0.4603 -0.6320
 1803SOL    HW1 5450   4.739   6.210   2.783  1.3556  0.1645 -0.7648
 1803SOL    HW2 5451   4.676   6.263   2.656  0.3994  0.7804 -0.0458
 1804SOL     OW 5452   3.739   2.410   1.802 -0.1964 -0.2214 -0.1631
 1804SOL    HW1 5453   3.687   2.447   1.731  0.8821 -0.5916 -1.1642
 1804SOL    HW2 5454   3.737   2.477   1.870 -0.8792  0.3176 -0.6995
 1805SOL     OW 5455   3.880   2.361   2.189  0.4807  0.3457 -0.3346
 1805SOL    HW1 5456   3.839   2.296   2.131  1.7457 -0.4100 -0.4160
 1805SOL    HW2 5457   3.968   2.327   2.205  0.2798  0.6940  1.7927
 1806SOL     OW 5458   3.710   3.066   2.952  0.0512  0.0350 -0.2285
 1806SOL    HW1 5459   3.708   3.134   2.884  0.5842 -0.7969 -1.1007
 1806SOL    HW2 5460   3.683   2.986   2.907  0.5067 -0.5598  0.5316
 1807SOL     OW 5461   4.090   2.171   2.095  0.1213  0.1111 -0.1303
 1807SOL    HW1 5462   4.103   2.094   2.039  0.5908 -0.5398  0.8388
 1807SOL    HW2 5463   4.077   2.134   2.183  1.3726  1.1557  0.5326
 1808SOL     OW 5464   3.630   3.287   2.698  0.4733  0.0722 -0.1641
 1808SOL    HW1 5465   3.721   3.256   2.692  0.3402 -0.4656  0.4832
 1808SOL    HW2 5466   3.589   3.257   2.617  0.6633 -0.3958 -0.0872
 1809SOL     OW 5467   4.126   3.842   1.309  0.3026  0.0792  0.0572
 1809SOL    HW1 5468   4.144   3.925   1.265 -1.3290  1.5356  1.9201
 1809SOL    HW2 5469   4.187   3.841   1.383 -0.1764 -0.0231  0.4511
 1810SOL     OW 5470   3.721   4.143   0.977 -0.0613  0.3477  0.2105
 1810SOL    HW1 5471   3.746   4.186   1.058 -0.2740  1.6858 -0.4136
 1810SOL    HW2 5472   3.801   4.140   0.925 -0.5387  2.1925 -0.7016
 1811SOL     OW 5473   3.717   3.771   1.725  0.0457 -0.2594 -0.3900
 1811SOL    HW1 5474   3.801   3.814   1.707 -0.5190  1.4246  0.7841
 1811SOL    HW2 5475   3.705   3.781   1.819 -0.8116 -1.7825 -0.3028
 1812SOL     OW 5476   3.714   4.394   0.676  0.3548  0.2687 -0.0599
 1812SOL    HW1 5477   3.622   4.405   0.701  0.7963 -1.4790  2.8487
 1812SOL    HW2 5478   3.718   4.424   0.586 -3.1573  0.0673 -0.4405
 1813SOL     OW 5479   3.637   4.219   2.401  0.3567 -0.0764 -0.1264
 1813SOL    HW1 5480   3.708   4.271   2.363  0.6969 -1.9494 -2.2579
 1813SOL    HW2 5481   3.574   4.209   2.331 -0.5540 -1.0224  0.7889
 1814SOL     OW 5482   3.594   4.526   0.989 -0.0772  0.0177 -0.0038
 1814SOL    HW1 5483   3.686   4.539   1.013  0.0228  0.5886 -0.6618
 1814SOL    HW2 5484   3.547   4.531   1.071  0.6104 -1.6273  0.5362
 1815SOL     OW 5485   0.399   3.913   0.121  0.7019 -0.5653  0.0689
 1815SOL    HW1 5486   0.396   3.818   0.109  2.0898 -0.5237 -0.8872
 1815SOL    HW2 5487   0.313   3.936   0.156  0.3339 -2.1659  0.2878
 1816SOL     OW 5488   4.467   3.792   1.013  0.1467  0.4728 -0.1179
 1816SOL    HW1 5489   4.532   3.803   1.083  2.5835  0.9512 -2.2810
 1816SOL    HW2 5490   4.386   3.770   1.058  1.2166  2.2143  2.9144
 1817SOL     OW 5491   3.408   3.529   1.911  0.2702  0.3338  0.1296
 1817SOL    HW1 5492   3.495   3.543   1.875  0.2369  0.6337  0.1636
 1817SOL    HW2 5493   3.421   3.467   1.983  0.2077 -1.0486 -1.0052
 1818SOL     OW 5494   4.146   3.609   0.654 -0.1336 -0.0503  0.3195
 1818SOL    HW1 5495   4.143   3.522   0.615  1.6872  0.7941 -2.0078
 1818SOL    HW2 5496   4.219   3.605   0.715  0.6580  0.0730 -0.5850
 1819SOL     OW 5497   3.493   4.613   1.660  0.1295  0.1412 -0.4298
 1819SOL    HW1 5498   3.566   4.672   1.681  0.5894 -0.3365 -0.6515
 1819SOL    HW2 5499   3.536   4.531   1.634 -0.5058 -0.7093  1.0971
 1820SOL     OW 5500   4.442   3.609   1.243  0.3342 -0.0322 -0.1810
 1820SOL    HW1 5501   4.356   3.592   1.282 -0.3727  1.8126 -0.8333
 1820SOL    HW2 5502   4.499   3.629   1.317 -0.1096 -0.0771  0.1747
 1821SOL     OW 5503   3.768   4.060   1.622  0.2496 -0.1201  0.4008
 1821SOL    HW1 5504   3.724   3.975   1.620  0.5651 -0.3150  1.1096
 1821SOL    HW2 5505   3.809   4.069   1.536  1.1792 -1.2109  0.7207
 1822SOL     OW 5506   4.052   3.565   1.871 -0.0289  0.0007 -0.0935
 1822SOL    HW1 5507   3.996   3.520   1.808  0.7277  1.4678 -1.9189
 1822SOL    HW2 5508   3.994   3.589   1.943 -1.0456 -1.2267 -0.4810
 1823SOL     OW 5509   3.659   3.618   1.513  0.1981 -0.1223  0.2519
 1823SOL    HW1 5510   3.659   3.681   1.586  2.6712 -1.1212  1.2067
 1823SOL    HW2 5511   3.693   3.537   1.551  1.2214 -0.7899 -1.9506
 1824SOL     OW 5512   4.071   3.764   0.889 -0.0095 -0.4644 -0.0506
 1824SOL    HW1 5513   4.082   3.858   0.876 -0.6780 -0.5222 -1.1381
 1824SOL    HW2 5514   4.150   3.726   0.851 -0.2870 -0.4080 -0.6942
 1825SOL     OW 5515   3.550   3.893   1.386 -0.2883  0.4538  0.2957
 1825SOL    HW1 5516   3.530   3.902   1.292  1.1051 -1.8273 -0.3066
 1825SOL    HW2 5517   3.622   3.829   1.389 -0.5774  0.1512  2.9626
 1826SOL     OW 5518   3.893   4.116   1.352  0.7557  0.2246  0.2267
 1826SOL    HW1 5519   3.884   4.036   1.301  0.8867  0.0494  0.4769
 1826SOL    HW2 5520   3.918   4.183   1.288  0.5457  0.0876  0.0017
 1827SOL     OW 5521   4.089   4.235   1.917 -0.2236 -0.4413  0.1829
 1827SOL    HW1 5522   4.102   4.157   1.863  0.6323 -1.2917  1.5446
 1827SOL    HW2 5523   4.053   4.202   1.999 -0.9679  0.7425  0.3561
 1828SOL     OW 5524   0.478   4.036   0.625  0.2105  0.1403 -0.2451
 1828SOL    HW1 5525   0.532   3.971   0.581 -1.7642 -1.0040 -1.1312
 1828SOL    HW2 5526   0.532   4.068   0.697  2.1866 -0.5912 -1.3379
 1829SOL     OW 5527   4.273   4.221   0.218  0.4578  0.0851  0.1031
 1829SOL    HW1 5528   4.273   4.282   0.292  0.3417 -0.7871  0.8380
 1829SOL    HW2 5529   4.306   4.273   0.145  0.4432  1.0073  0.7263
 1830SOL     OW 5530   4.169   4.061   1.159  0.0069 -0.3659 -0.4473
 1830SOL    HW1 5531   4.138   4.128   1.098  0.5234  0.0871 -0.2187
 1830SOL    HW2 5532   4.240   4.103   1.208 -0.1791 -0.8284  0.2419
 1831SOL     OW 5533   3.864   4.090   0.444 -0.3209  0.5254  0.6583
 1831SOL    HW1 5534   3.851   4.004   0.404 -0.9290  0.5640  0.7759
 1831SOL    HW2 5535   3.839   4.152   0.376  0.2892  0.6175  0.5116
 1832SOL     OW 5536   4.600   4.109   0.890  0.2858  0.3126 -0.2743
 1832SOL    HW1 5537   4.510   4.081   0.900 -0.2710  2.1537  0.2405
 1832SOL    HW2 5538   4.595   4.202   0.869  2.0680  0.9596  1.6901
 1833SOL     OW 5539   3.809   4.278   1.818  0.3040 -0.5748 -0.3263
 1833SOL    HW1 5540   3.786   4.253   1.907 -5.4136  0.1035 -1.2081
 1833SOL    HW2 5541   3.800   4.196   1.768  2.5366 -0.7527 -0.5287
 1834SOL     OW 5542   3.736   3.558   3.077 -0.0007 -0.2338  0.0766
 1834SOL    HW1 5543   3.750   3.567   3.171  0.3120 -0.6694  0.0778
 1834SOL    HW2 5544   3.665   3.618   3.057  1.7039  1.9150  0.1130
 1835SOL     OW 5545   3.515   4.077   2.746 -0.1210 -0.0605 -0.1272
 1835SOL    HW1 5546   3.524   4.007   2.682 -2.4462 -0.4199 -0.1582
 1835SOL    HW2 5547   3.554   4.154   2.703  0.9908 -0.9414 -0.7451
 1836SOL     OW 5548   3.801   4.097   2.554  0.7539 -0.1320 -0.6412
 1836SOL    HW1 5549   3.748   4.116   2.477  0.2154 -2.8438 -1.0347
 1836SOL    HW2 5550   3.838   4.011   2.537  0.7710 -0.7440  2.0431
 1837SOL     OW 5551   1.533   1.770   0.068  0.1246 -0.1996  0.6317
 1837SOL    HW1 5552   1.554   1.700   0.130  1.5052  0.6347  1.1606
 1837SOL    HW2 5553   1.523   1.848   0.123 -2.8758 -0.1861  0.2263
 1838SOL     OW 5554   4.421   4.083   1.563 -0.0221 -0.2807 -0.3843
 1838SOL    HW1 5555   4.340   4.121   1.529 -0.7687 -0.8428  0.6763
 1838SOL    HW2 5556   4.452   4.146   1.628 -0.1448 -0.5117 -0.0971
 1839SOL     OW 5557   4.471   4.094   2.781  0.0679  0.1510 -0.4583
 1839SOL    HW1 5558   4.377   4.078   2.780  0.1630 -0.4435 -1.4453
 1839SOL    HW2 5559   4.485   4.159   2.712  0.2863  0.8741  0.2534
 1840SOL     OW 5560   3.834   3.590   2.052  0.6738 -0.1436  0.3804
 1840SOL    HW1 5561   3.845   3.676   2.093  0.1828  0.5530 -0.8652
 1840SOL    HW2 5562   3.823   3.529   2.125 -0.3647  1.0640  1.2746
 1841SOL     OW 5563   3.525   3.967   2.450 -0.2325 -0.2602  0.7556
 1841SOL    HW1 5564   3.615   3.944   2.427 -0.7188  0.9747 -3.0938
 1841SOL    HW2 5565   3.524   4.063   2.448 -1.7406 -0.2646  0.0219
 1842SOL     OW 5566   3.831   3.440   2.268  0.2656  0.3053  0.0941
 1842SOL    HW1 5567   3.752   3.451   2.322  0.4810  0.5764  0.3577
 1842SOL    HW2 5568   3.873   3.362   2.303 -0.1429 -0.1331 -0.3734
 1843SOL     OW 5569   4.063   3.814   2.655 -0.4602 -0.0536  0.4954
 1843SOL    HW1 5570   4.133   3.807   2.590  0.0964  0.9347  0.9846
 1843SOL    HW2 5571   4.082   3.745   2.719 -1.7132 -1.9096 -0.9857
 1844SOL     OW 5572   4.405   4.333   2.632  0.1481 -0.1159 -0.1552
 1844SOL    HW1 5573   4.407   4.349   2.538  0.3277 -0.1720 -0.1615
 1844SOL    HW2 5574   4.355   4.406   2.668 -0.6373 -0.5302 -0.3809
 1845SOL     OW 5575   3.800   3.799   2.546  0.2110 -0.1650 -1.0923
 1845SOL    HW1 5576   3.736   3.795   2.617 -0.5027  1.6292 -1.5807
 1845SOL    HW2 5577   3.885   3.790   2.588 -0.2559 -0.3080 -0.1656
 1846SOL     OW 5578   4.085   4.092   2.525  0.4573 -0.2180  0.0652
 1846SOL    HW1 5579   4.062   4.013   2.574  0.6408 -1.0329 -1.1084
 1846SOL    HW2 5580   4.181   4.097   2.531  0.5161 -0.5355 -0.4965
 1847SOL     OW 5581   4.535   4.346   2.013 -0.4724 -0.0307 -0.8612
 1847SOL    HW1 5582   4.630   4.347   2.024 -0.3260  2.2600 -1.7710
 1847SOL    HW2 5583   4.519   4.277   1.949  0.3641 -1.6638  0.6250
 1848SOL     OW 5584   3.882   4.032   2.931 -0.6397  0.3149 -0.4461
 1848SOL    HW1 5585   3.862   3.954   2.880  2.1611 -1.2998  0.6865
 1848SOL    HW2 5586   3.822   4.030   3.005  0.7236 -2.0750  0.7206
 1849SOL     OW 5587   3.564   3.465   2.396  0.6081 -0.4800 -0.2893
 1849SOL    HW1 5588   3.564   3.508   2.481 -1.5347 -0.5211 -0.2264
 1849SOL    HW2 5589   3.489   3.406   2.399 -1.4068  1.6405 -3.1881
 1850SOL     OW 5590   3.699   3.438   1.846  0.0864  0.3160 -0.3440
 1850SOL    HW1 5591   3.784   3.422   1.806 -0.2978 -1.2074 -0.6247
 1850SOL    HW2 5592   3.714   3.511   1.906  0.9207  2.0284 -2.4800
 1851SOL     OW 5593   3.928   4.242   2.777 -0.3625 -0.5899  0.4020
 1851SOL    HW1 5594   3.942   4.202   2.691  1.7160 -1.5209  1.0964
 1851SOL    HW2 5595   3.903   4.169   2.833 -0.6685 -0.1677  0.8189
 1852NaJ    NaJ 5596   1.333   0.842   1.187  0.2047 -0.0965 -0.2821
 1853NaJ    NaJ 5597   1.889   5.041   1.514  0.0078  0.2639 -0.7008
 1854NaJ    NaJ 5598   1.636   4.000   0.652  0.2045  0.0661 -0.0329
 1855NaJ    NaJ 5599   3.876   4.733   1.287 -0.0160  0.3477 -0.0135
 1856NaJ    NaJ 5600   3.457   1.815   0.362 -0.0767 -0.1519  0.3628
 1857ClJ    ClJ 5601   2.355   2.426   2.998  0.0054 -0.1728  0.2806
 1858ClJ    ClJ 5602   5.214   3.380   1.287 -0.2509 -0.0671  0.0740
 1859ClJ    ClJ 5603   4.547   3.491   2.939 -0.6026 -0.1052 -0.0114
 1860ClJ    ClJ 5604   2.573   4.050   2.631 -0.2779  0.0705 -0.0865
 1861ClJ    ClJ 5605   4.095   1.928   1.913  0.1561  0.1314 -0.0774
   4.33090   4.33090   3.06241   0.00000   0.00000   0.00000   0.00000   2.16545   2.16545
