ligand in water
 5605
    1LIG      C    1   3.532   3.677   1.589 -0.4888  0.1720  0.4946
    1LIG     C1    2   3.496   3.541   1.652  0.1663 -0.0965  0.2931
    1LIG      O    3   3.406   3.557   1.762 -0.0238 -0.1659  0.1478
    1LIG     C2    4   3.295   3.477   1.770 -0.3305  0.2039 -0.2998
    1LIG      N    5   3.317   3.353   1.724  0.1322  0.0450  0.3372
    1LIG     C3    6   3.217   3.264   1.738  0.0289  0.0787 -0.1712
    1LIG     C4    7   3.096   3.291   1.802 -0.1852 -0.1067 -0.4988
    1LIG     C5    8   3.075   3.422   1.846 -0.1521 -0.2718  0.0184
    1LIG     N1    9   2.961   3.445   1.920 -0.1086 -0.2432  0.0784
    1LIG     C6   10   3.175   3.518   1.827 -0.1676 -0.1875  0.3483
    1LIG     C7   11   3.163   3.650   1.882 -0.8808 -0.0280 -0.1689
    1LIG     N2   12   3.138   3.758   1.917 -0.3178  0.2982 -0.7596
    1LIG     N3   13   3.250   3.136   1.689 -0.1611  0.0369 -0.1917
    1LIG     C8   14   3.165   3.050   1.622 -0.1403  0.1278 -0.3342
    1LIG     O1   15   3.047   3.078   1.610 -0.4097 -0.5627  0.5936
    1LIG     C9   16   3.222   2.918   1.572 -0.1584  0.0508 -0.1537
    1LIG    C10   17   3.369   2.913   1.536 -0.0352  0.8223  0.2123
    1LIG    C11   18   3.450   2.812   1.590 -0.5631 -0.3161 -1.0697
    1LIG     CL   19   3.369   2.690   1.686  0.0079  0.0542 -0.1024
    1LIG    C12   20   3.588   2.809   1.573 -0.5330 -0.7085 -0.7723
    1LIG    C13   21   3.650   2.908   1.495 -0.0382  0.1629  0.6850
    1LIG    C14   22   3.572   3.012   1.443  0.2495  0.2225  0.3698
    1LIG    C15   23   3.433   3.011   1.460  0.2083  0.5382  0.0491
    1LIG      H   24   3.599   3.649   1.508 -1.3058 -1.0550  0.2192
    1LIG     H1   25   3.448   3.740   1.555  0.4543  1.7017  0.9097
    1LIG     H2   26   3.583   3.741   1.662  1.4269  0.4113 -0.9678
    1LIG     H3   27   3.456   3.489   1.564  3.4835 -1.1310 -0.7683
    1LIG     H4   28   3.582   3.484   1.690  2.1104  2.7405  0.4997
    1LIG     H5   29   3.031   3.208   1.829  1.1857 -0.6593  1.2649
    1LIG     H6   30   2.887   3.377   1.910 -1.2405  0.9891 -0.3813
    1LIG     H7   31   2.928   3.541   1.915  2.1397  0.5669 -0.0510
    1LIG     H8   32   3.346   3.109   1.674 -0.1096  1.2049 -2.3241
    1LIG     H9   33   3.201   2.855   1.659 -1.1815  0.8312  0.1888
    1LIG    H10   34   3.159   2.883   1.489 -1.4658 -0.4048  0.9923
    1LIG    H11   35   3.648   2.730   1.618 -1.1600 -0.5065  0.4723
    1LIG    H12   36   3.756   2.906   1.473 -0.0023  0.1958  0.8498
    1LIG    H13   37   3.612   3.091   1.380 -1.6979  0.3214 -0.8335
    1LIG    H14   38   3.375   3.092   1.416  0.9914  0.9057 -0.3216
    1LIG    EP1   39   3.279   2.554   1.792  0.6424  0.4657  0.9726
    1LIG    DCL   40   3.685   2.685   1.649 -0.3222 -0.0682  0.0222
    1LIG    HV6   41   2.903   3.364   1.936  2.4137 -2.1762 -0.0183
    1LIG    HV7   42   2.926   3.539   1.933  0.0273 -0.3414  1.2807
    1LIG    HV8   43   3.350   3.118   1.697 -0.0087  0.1115 -1.7063
    1LIG   HV11   44   3.397   2.750   1.662 -1.9469  2.2574  0.2956
    1LIG   DEP1   45   3.792   2.546   1.734 -0.0879  0.6435  0.9052
    2SOL     OW   46   4.253   0.552   0.161  0.1675 -0.0078  0.3859
    2SOL    HW1   47   4.337   0.507   0.162 -0.3247 -1.0331 -1.1902
    2SOL    HW2   48   4.232   0.564   0.254  0.5102 -2.7075  0.9090
    3SOL     OW   49   4.670   0.674   0.797  0.2551  0.1507 -0.5747
    3SOL    HW1   50   4.695   0.593   0.842  1.3182  0.7733  0.0062
    3SOL    HW2   51   4.576   0.684   0.815  0.6351  0.3645  1.5305
    4SOL     OW   52   4.093   4.584   0.731  0.3256  0.3091 -0.5068
    4SOL    HW1   53   4.005   4.567   0.763  0.2758 -0.7080 -1.1446
    4SOL    HW2   54   4.103   4.679   0.736  0.7990  0.2266  3.6974
    5SOL     OW   55   4.606   1.090   1.334 -0.4675 -0.8915 -0.4157
    5SOL    HW1   56   4.638   1.168   1.288 -1.3223 -0.3244 -0.0702
    5SOL    HW2   57   4.661   1.083   1.411 -1.9608  0.8875  0.9143
    6SOL     OW   58   1.382   2.219   0.743  0.1370  0.7924  0.1788
    6SOL    HW1   59   1.363   2.154   0.676  0.0782 -0.6906  1.5835
    6SOL    HW2   60   1.298   2.261   0.761  0.2075  1.4032 -0.8547
    7SOL     OW   61   0.886   1.043   1.001  0.1148 -0.5536  0.1314
    7SOL    HW1   62   0.830   1.036   1.078 -0.7784  0.5020 -0.4069
    7SOL    HW2   63   0.858   0.971   0.944 -0.3264 -0.3625  0.1054
    8SOL     OW   64   2.033   0.475   0.278 -0.0086 -0.1026 -0.6292
    8SOL    HW1   65   1.993   0.391   0.299  0.0318  0.0728  0.1752
    8SOL    HW2   66   1.973   0.540   0.313 -0.1875  0.2172 -1.5102
    9SOL     OW   67   4.638   5.157   1.292  0.2296 -0.5565  0.2471
    9SOL    HW1   68   4.616   5.247   1.315 -1.3671 -1.1474  1.1561
    9SOL    HW2   69   4.722   5.164   1.246  0.4415  1.3155  0.8512
   10SOL     OW   70   5.597   5.017   1.826  0.1161 -0.2498 -0.2683
   10SOL    HW1   71   5.574   5.090   1.883  0.2142 -0.1778 -0.3206
   10SOL    HW2   72   5.576   5.049   1.738  4.8198  1.7168 -0.9834
   11SOL     OW   73   4.414   1.042   0.487 -0.1269 -0.1871 -0.0534
   11SOL    HW1   74   4.449   1.131   0.483 -0.4419 -0.0899 -1.3008
   11SOL    HW2   75   4.360   1.040   0.566  1.5487  0.0721  1.1549
   12SOL     OW   76   5.140   5.334   1.919  0.6021 -0.6588  0.0794
   12SOL    HW1   77   5.071   5.303   1.978 -0.0878 -0.3423 -0.5384
   12SOL    HW2   78   5.146   5.428   1.935  0.8687 -0.6794  0.1069
   13SOL     OW   79   4.763   1.310   1.209  0.0989  0.3122  0.6126
   13SOL    HW1   80   4.811   1.392   1.219  0.1862  0.1273  1.9860
   13SOL    HW2   81   4.790   1.276   1.124  0.0379  1.7161  0.0197
   14SOL     OW   82   1.554   1.588   1.304 -0.0577 -0.3007  0.8441
   14SOL    HW1   83   1.503   1.655   1.350 -0.9400  0.2183 -0.8089
   14SOL    HW2   84   1.599   1.636   1.234  0.7602 -1.1521  0.7703
   15SOL     OW   85   4.913   4.147   1.298 -0.0520  0.3204  0.5506
   15SOL    HW1   86   4.823   4.178   1.308 -0.2472  0.0491 -0.3254
   15SOL    HW2   87   4.915   4.105   1.212  1.1598  1.2080  0.1152
   16SOL     OW   88   2.122   4.745   0.605 -0.2286 -0.3841 -0.4313
   16SOL    HW1   89   2.087   4.754   0.693  2.6930  0.6379  0.7271
   16SOL    HW2   90   2.158   4.832   0.584  1.3801 -1.2757 -1.5682
   17SOL     OW   91   3.937   1.534   0.713  0.8136  0.0127 -0.1659
   17SOL    HW1   92   3.954   1.628   0.715  0.4720  0.0841  1.6023
   17SOL    HW2   93   3.951   1.506   0.804  2.2387 -1.8981 -0.8892
   18SOL     OW   94   5.282   1.436   1.612  0.5090 -0.2314  0.1653
   18SOL    HW1   95   5.294   1.455   1.705 -1.7820 -0.6329  0.5815
   18SOL    HW2   96   5.194   1.467   1.592  1.1313  0.3335 -2.0310
   19SOL     OW   97   4.650   1.495   0.789  0.4428 -0.1551 -0.6655
   19SOL    HW1   98   4.649   1.565   0.854  0.1279 -0.6753 -0.1009
   19SOL    HW2   99   4.571   1.444   0.807  1.1825 -1.2406 -0.4234
   20SOL     OW  100   4.506   1.272   1.040 -0.1866 -0.7064 -0.7305
   20SOL    HW1  101   4.601   1.279   1.053 -0.4237 -0.1996  0.9547
   20SOL    HW2  102   4.497   1.208   0.969  1.4789  1.3402 -2.9596
   21SOL     OW  103   4.936   1.724   1.445  0.3736  0.3995  0.7515
   21SOL    HW1  104   4.997   1.788   1.409 -0.1954  0.9135  0.6839
   21SOL    HW2  105   4.990   1.668   1.501  1.0195  0.4382  0.1843
   22SOL     OW  106   0.276   0.868   0.402  0.3154  0.2017  0.8568
   22SOL    HW1  107   0.235   0.859   0.316 -0.4484  0.6556  1.1604
   22SOL    HW2  108   0.225   0.937   0.445 -0.5111 -1.2825  2.3573
   23SOL     OW  109   1.506   4.407   1.673 -0.2872 -0.4541 -0.4086
   23SOL    HW1  110   1.502   4.325   1.722  0.6082 -0.6545 -0.6419
   23SOL    HW2  111   1.443   4.465   1.716  0.7998 -0.4562  1.2888
   24SOL     OW  112   4.779   0.936   0.842 -0.0560  0.1694 -0.2159
   24SOL    HW1  113   4.758   0.857   0.792  0.7068  0.6152 -1.2688
   24SOL    HW2  114   4.704   0.946   0.902 -0.5348 -0.9068 -0.5987
   25SOL     OW  115   2.109   1.628   0.398 -0.6097  0.2783  0.4860
   25SOL    HW1  116   2.040   1.667   0.451  0.4296  0.8139  1.4948
   25SOL    HW2  117   2.190   1.670   0.428  0.6169 -2.6930  1.7954
   26SOL     OW  118   2.224   3.737   2.995 -0.8855 -0.0907  0.2264
   26SOL    HW1  119   2.288   3.705   2.931  1.3969  0.7526  1.9499
   26SOL    HW2  120   2.166   3.663   3.010 -0.5706 -0.7894 -1.6468
   27SOL     OW  121   2.090   0.959   0.640 -0.5336  0.0603  0.1954
   27SOL    HW1  122   2.116   1.027   0.577 -0.9392 -0.3237 -0.4001
   27SOL    HW2  123   1.998   0.977   0.659 -0.3870  0.2295  0.7571
   28SOL     OW  124   1.841   1.042   0.690  0.2213  0.0552 -0.1005
   28SOL    HW1  125   1.776   0.981   0.726  0.0163  0.8846  1.0175
   28SOL    HW2  126   1.805   1.068   0.605  1.0773 -2.5261 -1.3737
   29SOL     OW  127   4.419   4.693   1.594 -0.0929 -0.7419 -0.5468
   29SOL    HW1  128   4.426   4.786   1.572  0.1194 -1.3106 -3.2726
   29SOL    HW2  129   4.493   4.676   1.651 -0.1310  0.7578 -0.0049
   30SOL     OW  130   0.542   1.136   0.676  0.6354  0.3565  0.0251
   30SOL    HW1  131   0.501   1.060   0.718  1.3745 -0.1678 -0.1919
   30SOL    HW2  132   0.468   1.188   0.644  0.1133 -0.1025  0.4568
   31SOL     OW  133   1.153   1.263   1.142 -0.2714 -0.1934  0.4898
   31SOL    HW1  134   1.223   1.328   1.154 -0.9797  0.5401  0.6938
   31SOL    HW2  135   1.128   1.240   1.231 -0.1509 -0.6116  0.4153
   32SOL     OW  136   1.116   4.334   0.580  0.0319 -0.4970  0.6296
   32SOL    HW1  137   1.093   4.320   0.488  0.3412  1.0584  0.2842
   32SOL    HW2  138   1.042   4.299   0.629 -1.1101  0.5292 -0.2957
   33SOL     OW  139   4.740   4.772   0.965  0.4866  0.0493 -0.3830
   33SOL    HW1  140   4.736   4.683   0.930 -0.1723 -0.5625  1.1576
   33SOL    HW2  141   4.832   4.785   0.988  0.2190 -1.1926  1.6378
   34SOL     OW  142   3.567   3.143   2.995 -0.4405  0.1831 -0.1470
   34SOL    HW1  143   3.494   3.190   3.035 -0.0558  1.7698 -1.2032
   34SOL    HW2  144   3.531   3.058   2.972 -0.7878 -0.6549  3.0667
   35SOL     OW  145   1.670   1.939   1.484  0.5247 -0.3370 -0.3511
   35SOL    HW1  146   1.724   1.869   1.520  1.2983  0.5638  0.2879
   35SOL    HW2  147   1.587   1.932   1.532  0.7235 -0.6030 -0.0404
   36SOL     OW  148   5.259   4.297   1.709  0.6255 -0.4252 -0.0322
   36SOL    HW1  149   5.273   4.316   1.617  2.1046  0.2364  0.2830
   36SOL    HW2  150   5.191   4.230   1.711 -0.0938  0.2242 -1.5424
   37SOL     OW  151   1.233   1.695   0.824  0.2830 -0.1769 -0.3741
   37SOL    HW1  152   1.252   1.768   0.883  0.7559  0.0019 -0.7471
   37SOL    HW2  153   1.158   1.651   0.865  0.0599  0.4495 -0.0930
   38SOL     OW  154   1.580   1.765   0.497  0.0454  0.0296 -0.2992
   38SOL    HW1  155   1.628   1.766   0.580 -0.4843  0.0728  0.0085
   38SOL    HW2  156   1.509   1.703   0.510  0.0672 -0.1040 -0.7854
   39SOL     OW  157   0.427   0.726   0.081 -0.0839  0.2355 -0.5408
   39SOL    HW1  158   0.344   0.763   0.113 -0.1527 -0.8668  0.6275
   39SOL    HW2  159   0.407   0.634   0.065  1.1749 -0.2843  0.7374
   40SOL     OW  160   1.568   4.507   0.742  0.1113  0.2457  1.1178
   40SOL    HW1  161   1.478   4.488   0.768  0.3377 -1.2660  0.9122
   40SOL    HW2  162   1.614   4.523   0.824 -0.4886  1.8276  1.1751
   41SOL     OW  163   1.658   1.716   0.760  0.0949  0.2261  0.2438
   41SOL    HW1  164   1.603   1.647   0.797 -0.5845  0.0608 -1.0160
   41SOL    HW2  165   1.734   1.669   0.726  1.1553  0.4715  2.1304
   42SOL     OW  166   1.038   4.803   1.390  0.6351 -0.1920 -0.4190
   42SOL    HW1  167   0.984   4.736   1.349  0.1457  0.3536 -0.6806
   42SOL    HW2  168   1.058   4.768   1.477  1.8972 -1.4857 -1.1776
   43SOL     OW  169   1.613   4.444   1.382 -0.5626 -0.1684 -0.0572
   43SOL    HW1  170   1.683   4.463   1.443 -0.8808  0.4885  0.1217
   43SOL    HW2  171   1.552   4.388   1.431  0.1860 -1.3563 -0.4537
   44SOL     OW  172   1.357   5.256   1.426  0.0701 -0.2622  0.3299
   44SOL    HW1  173   1.283   5.311   1.453  0.4668  1.1275 -1.2951
   44SOL    HW2  174   1.316   5.179   1.385 -0.4720 -0.6465  1.5450
   45SOL     OW  175   1.551   4.621   1.158 -0.4035  0.0453 -0.1126
   45SOL    HW1  176   1.595   4.594   1.239  1.0226  0.6844 -0.6523
   45SOL    HW2  177   1.469   4.660   1.187 -0.1547 -0.2246  0.9911
   46SOL     OW  178   1.097   0.912   0.792  0.9583 -0.0543  0.1433
   46SOL    HW1  179   1.123   0.997   0.826  1.9103 -0.2642 -0.0342
   46SOL    HW2  180   1.054   0.932   0.708  0.5130  0.2971  0.4522
   47SOL     OW  181   4.046   0.638   0.923  0.5471 -0.2104  0.4112
   47SOL    HW1  182   4.088   0.574   0.981 -1.3882 -0.9630  1.0369
   47SOL    HW2  183   3.984   0.684   0.979  0.6144  0.9939 -0.4646
   48SOL     OW  184   4.644   2.227   1.486 -0.2693 -0.1713  0.2250
   48SOL    HW1  185   4.554   2.197   1.499  0.1183 -1.2065  0.7057
   48SOL    HW2  186   4.697   2.156   1.521  0.7200  1.1925  1.5884
   49SOL     OW  187   0.644   0.524   0.168 -0.0304  0.3145  0.1387
   49SOL    HW1  188   0.694   0.537   0.088  1.5865  0.3462  1.0919
   49SOL    HW2  189   0.579   0.457   0.146  0.3086  0.4085 -1.2181
   50SOL     OW  190   5.886   5.103   2.271 -0.2856 -0.4581 -0.1866
   50SOL    HW1  191   5.925   5.170   2.329 -0.1613 -0.8221  0.1545
   50SOL    HW2  192   5.960   5.048   2.246 -0.5078 -0.8926  0.1081
   51SOL     OW  193   1.153   1.182   0.874  0.4579  0.3438  0.1258
   51SOL    HW1  194   1.135   1.217   0.961  0.6398  2.4420 -0.6316
   51SOL    HW2  195   1.182   1.257   0.823  0.1869 -0.7981 -1.8157
   52SOL     OW  196   0.977   4.327   0.964 -0.5164 -0.2078  0.5849
   52SOL    HW1  197   0.884   4.303   0.957 -0.3837 -0.7636  0.7224
   52SOL    HW2  198   0.996   4.322   1.058  0.0483 -1.6045  0.4135
   53SOL     OW  199   1.209   1.189   0.423  0.0208 -0.3459 -0.3594
   53SOL    HW1  200   1.136   1.168   0.481  0.0813 -0.1199 -0.1979
   53SOL    HW2  201   1.235   1.105   0.385  0.4312 -0.6179  0.4828
   54SOL     OW  202   4.481   2.099   0.937  0.1631  0.0726  0.2628
   54SOL    HW1  203   4.524   2.017   0.911  0.4661  0.2860  0.0832
   54SOL    HW2  204   4.509   2.111   1.028  0.9650  0.5096 -0.0314
   55SOL     OW  205   1.846   0.879   1.061  0.3543 -0.8031  0.2592
   55SOL    HW1  206   1.920   0.874   1.001 -0.2162 -1.0773 -0.4428
   55SOL    HW2  207   1.876   0.936   1.132  0.4906  0.9337 -1.1265
   56SOL     OW  208   1.286   1.510   1.213  0.2792 -0.2590  0.4297
   56SOL    HW1  209   1.369   1.556   1.205 -0.7125  1.4539 -0.5147
   56SOL    HW2  210   1.258   1.527   1.303  0.4170  0.0939  0.4064
   57SOL     OW  211   4.588   0.450   0.403  0.4413  0.1904 -0.7045
   57SOL    HW1  212   4.596   0.479   0.312 -1.3080  0.4058 -0.8349
   57SOL    HW2  213   4.645   0.510   0.452  0.6364  0.7168 -1.5456
   58SOL     OW  214   1.575   0.949   0.693  0.1183  0.1305  0.2883
   58SOL    HW1  215   1.491   0.906   0.707 -0.1150  0.3270 -0.4531
   58SOL    HW2  216   1.562   1.001   0.614  1.0341 -0.0961 -0.0233
   59SOL     OW  217   5.025   1.504   1.607  0.0377 -0.2819 -0.4782
   59SOL    HW1  218   4.929   1.500   1.600  0.0053 -0.0221 -0.2397
   59SOL    HW2  219   5.041   1.586   1.655  0.4151  0.1451 -1.3164
   60SOL     OW  220   1.258   1.404   0.264 -0.2800  0.6239  0.8151
   60SOL    HW1  221   1.187   1.461   0.293  0.2777  0.5583  2.4682
   60SOL    HW2  222   1.244   1.323   0.314  0.7596  0.5014  0.9242
   61SOL     OW  223   4.675   4.507   1.794  0.2849 -0.4435 -0.0657
   61SOL    HW1  224   4.685   4.564   1.871  0.8489  0.6105 -0.8884
   61SOL    HW2  225   4.756   4.456   1.792  0.4685 -0.1527 -0.2011
   62SOL     OW  226   1.898   1.464   0.175  0.2861 -0.4261  0.6546
   62SOL    HW1  227   1.867   1.382   0.136  0.3599  0.1919 -0.7782
   62SOL    HW2  228   1.820   1.518   0.182  0.2551 -0.5754  1.4966
   63SOL     OW  229   0.590   1.573   0.358 -0.0402  0.0695  0.1061
   63SOL    HW1  230   0.576   1.599   0.449 -1.5199 -0.7961  0.1531
   63SOL    HW2  231   0.587   1.477   0.360 -0.8265  0.0568 -0.9574
   64SOL     OW  232   1.688   0.189   0.133 -0.1212  0.0521  0.3791
   64SOL    HW1  233   1.659   0.271   0.172  1.1395  0.3383  0.7400
   64SOL    HW2  234   1.666   0.197   0.040 -2.2153 -0.2237  0.7889
   65SOL     OW  235   4.785   2.004   1.576 -0.3188 -0.0286  0.1048
   65SOL    HW1  236   4.871   1.963   1.577 -0.5481 -0.6287  3.1020
   65SOL    HW2  237   4.767   2.026   1.667 -1.6000  3.9183 -0.8777
   66SOL     OW  238   0.652   1.434   0.843  0.5859  0.4319 -0.2751
   66SOL    HW1  239   0.686   1.522   0.824  1.9335 -0.1047 -0.4629
   66SOL    HW2  240   0.716   1.375   0.804 -0.3519 -0.6404 -0.2191
   67SOL     OW  241   0.671   0.607   0.448 -0.0653  0.1868  0.3219
   67SOL    HW1  242   0.582   0.611   0.483  0.0454 -0.3275  0.6599
   67SOL    HW2  243   0.659   0.579   0.357 -0.1647 -1.1839  0.7457
   68SOL     OW  244   1.541   4.508   1.946 -0.2057  0.0499 -0.4645
   68SOL    HW1  245   1.582   4.532   2.029  0.1570  0.2697 -0.7087
   68SOL    HW2  246   1.447   4.505   1.966 -0.0732 -0.5686  0.1241
   69SOL     OW  247   2.747   6.297   2.950 -0.2081  0.3313 -0.3833
   69SOL    HW1  248   2.841   6.290   2.971  0.1411  1.0465 -1.6060
   69SOL    HW2  249   2.745   6.330   2.860 -1.6195  2.1417  0.2464
   70SOL     OW  250   4.899   4.627   1.658 -0.3373 -0.2773  0.0280
   70SOL    HW1  251   4.913   4.719   1.680 -0.3921 -0.0980 -0.6769
   70SOL    HW2  252   4.810   4.608   1.688 -0.2840 -0.1355  0.2799
   71SOL     OW  253   5.017   5.461   1.628  0.0873  0.0392 -0.5244
   71SOL    HW1  254   4.997   5.467   1.722  0.9183 -1.1562 -0.2530
   71SOL    HW2  255   5.031   5.551   1.601 -0.3921  0.4252  0.4456
   72SOL     OW  256   1.486   4.984   1.304  0.5001 -0.2173  0.4037
   72SOL    HW1  257   1.512   5.076   1.298  1.1090 -0.3097  1.4514
   72SOL    HW2  258   1.561   4.940   1.342 -0.4611 -0.8315  1.6468
   73SOL     OW  259   4.854   0.843   1.131  0.1579  0.5226 -0.0167
   73SOL    HW1  260   4.927   0.889   1.172 -0.2795  0.3886  0.9300
   73SOL    HW2  261   4.849   0.881   1.043 -0.1803  2.3051  0.7213
   74SOL     OW  262   1.339   4.775   1.238 -0.0868 -0.2498  0.1852
   74SOL    HW1  263   1.390   4.842   1.284  0.3128  0.5216 -1.3112
   74SOL    HW2  264   1.272   4.748   1.301  0.0797  1.1762  1.0115
   75SOL     OW  265   1.021   4.591   0.866  0.4246 -0.5033  0.6646
   75SOL    HW1  266   1.000   4.500   0.886 -0.5056 -0.9904 -2.0371
   75SOL    HW2  267   0.946   4.641   0.899  0.8471 -0.6964  1.9743
   76SOL     OW  268   3.731   3.355   2.873 -0.1779  1.0417  0.0569
   76SOL    HW1  269   3.789   3.312   2.936  0.7226  1.3493 -0.5211
   76SOL    HW2  270   3.649   3.368   2.919 -0.5030 -1.2903  0.2710
   77SOL     OW  271   0.368   4.395   0.253  0.4792 -0.2519 -0.7774
   77SOL    HW1  272   0.425   4.328   0.290 -0.1240 -1.4407 -1.9201
   77SOL    HW2  273   0.427   4.451   0.202  0.9683  0.0419  0.0827
   78SOL     OW  274   0.879   4.393   0.365  0.0499  0.4126 -0.3085
   78SOL    HW1  275   0.929   4.391   0.284  0.4585  1.8545 -0.1156
   78SOL    HW2  276   0.821   4.469   0.356 -0.5140  0.0806  0.3950
   79SOL     OW  277   1.192   5.007   1.556 -0.0755 -0.1019  0.1930
   79SOL    HW1  278   1.164   5.012   1.465  0.9053  0.1241 -0.1077
   79SOL    HW2  279   1.134   4.942   1.596 -0.3374 -0.3950 -0.6594
   80SOL     OW  280   0.982   2.076   0.922 -0.4648  0.3685 -0.2912
   80SOL    HW1  281   0.967   1.990   0.962  2.4918 -0.8249 -1.5460
   80SOL    HW2  282   1.004   2.058   0.831  2.2509  2.2185 -0.1235
   81SOL     OW  283   4.233   0.808   0.848 -0.4663  0.0995  0.1061
   81SOL    HW1  284   4.153   0.755   0.848 -0.0930 -0.4775 -0.3823
   81SOL    HW2  285   4.284   0.773   0.922  0.3887 -1.1967 -1.0403
   82SOL     OW  286   1.084   1.990   0.666 -0.0473 -0.1287 -0.0779
   82SOL    HW1  287   1.023   2.019   0.599  0.4404  0.7559 -0.1457
   82SOL    HW2  288   1.134   1.919   0.624 -0.6499 -0.4984 -0.1909
   83SOL     OW  289   1.005   0.311   0.061  0.5681  0.0605 -0.0502
   83SOL    HW1  290   0.968   0.317   0.149  0.9290  0.1180  0.0997
   83SOL    HW2  291   1.057   0.391   0.051 -0.0349  0.3889 -0.5803
   84SOL     OW  292   4.661   4.833   1.474 -0.1968 -0.0706  0.3050
   84SOL    HW1  293   4.623   4.912   1.512 -0.6027 -1.3061  2.6567
   84SOL    HW2  294   4.755   4.845   1.485 -0.3136 -0.7343  2.6313
   85SOL     OW  295   4.987   4.509   1.421 -0.0725 -0.3151  0.3944
   85SOL    HW1  296   4.950   4.561   1.492  1.3272  2.4080 -0.7180
   85SOL    HW2  297   4.920   4.509   1.353  0.1787  0.8004  0.1114
   86SOL     OW  298   0.960   0.493   0.703  0.3517 -0.2676 -0.0477
   86SOL    HW1  299   0.921   0.511   0.788 -2.2742  2.4222 -1.6268
   86SOL    HW2  300   0.948   0.399   0.690 -3.1271 -0.0746  0.8461
   87SOL     OW  301   0.993   4.032   0.298 -0.2686 -0.1693 -0.0660
   87SOL    HW1  302   1.030   4.107   0.252 -0.0580 -1.1850 -1.6454
   87SOL    HW2  303   0.909   4.062   0.331 -0.5116  0.5516 -1.3069
   88SOL     OW  304   1.614   1.323   0.785 -0.0247 -0.3366  0.2816
   88SOL    HW1  305   1.568   1.284   0.710  0.5030  0.9809 -0.7655
   88SOL    HW2  306   1.552   1.389   0.818  0.3200  0.0883  0.0869
   89SOL     OW  307   2.124   4.656   0.933 -0.1302  0.5159  0.1727
   89SOL    HW1  308   2.065   4.586   0.906  0.3068  0.8692 -1.8634
   89SOL    HW2  309   2.075   4.737   0.914  0.6433  0.7946 -0.7083
   90SOL     OW  310   1.651   1.033   0.005 -0.7965  0.2403  0.0843
   90SOL    HW1  311   1.571   0.983  -0.014 -1.0590  0.4436  0.6534
   90SOL    HW2  312   1.721   0.967   0.004 -1.2344 -0.2873  1.5626
   91SOL     OW  313   0.691   1.277   0.179  0.1503  0.4002  0.2523
   91SOL    HW1  314   0.665   1.323   0.099 -0.7617 -0.2965  0.1417
   91SOL    HW2  315   0.733   1.197   0.148 -2.3600 -1.0740  0.4335
   92SOL     OW  316   1.794   1.494   0.628  0.4615  0.0566 -0.0131
   92SOL    HW1  317   1.753   1.428   0.683  0.1350 -0.1212 -0.4636
   92SOL    HW2  318   1.842   1.444   0.561  1.5521  0.2542  0.5908
   93SOL     OW  319   1.278   0.684   0.427  0.2137  0.1000 -0.1773
   93SOL    HW1  320   1.188   0.653   0.439  0.0218  0.4240 -0.7465
   93SOL    HW2  321   1.332   0.605   0.436 -0.0822 -0.0132  0.6775
   94SOL     OW  322   0.648   4.272   0.187  0.8860 -0.0030 -0.0012
   94SOL    HW1  323   0.659   4.303   0.097  1.0733 -1.6943 -0.6023
   94SOL    HW2  324   0.720   4.313   0.235  1.4666  0.0360 -0.8830
   95SOL     OW  325   1.676   1.375   1.700 -0.2555  0.2489  0.6629
   95SOL    HW1  326   1.723   1.459   1.702 -0.2287  0.2273  2.9390
   95SOL    HW2  327   1.642   1.370   1.611  2.0058  1.4018 -0.3797
   96SOL     OW  328   0.974   1.255   1.412 -0.8715  0.0427 -0.5015
   96SOL    HW1  329   0.883   1.266   1.384 -1.1589  1.3281  0.8403
   96SOL    HW2  330   0.985   1.318   1.483  0.3441 -1.7854  1.0543
   97SOL     OW  331   1.438   1.679   1.808  0.0235  1.3292 -0.4181
   97SOL    HW1  332   1.458   1.676   1.714 -0.1147  0.2057 -0.4265
   97SOL    HW2  333   1.459   1.591   1.840 -0.9452  1.3740  0.3927
   98SOL     OW  334   0.920   1.346   1.034 -0.4232 -0.3454  0.9995
   98SOL    HW1  335   0.946   1.261   1.070 -1.9162 -0.9938  0.5894
   98SOL    HW2  336   0.897   1.328   0.943 -1.6702  0.3097  1.1630
   99SOL     OW  337   1.519   1.044   0.955 -0.3616  0.3464  0.0970
   99SOL    HW1  338   1.571   1.111   1.000  1.8233 -2.1224  1.5275
   99SOL    HW2  339   1.551   1.046   0.865  0.0324  0.9004  0.2381
  100SOL     OW  340   1.007   4.402   1.249 -0.2932  0.0686  0.2813
  100SOL    HW1  341   0.990   4.308   1.262 -0.2419 -0.3461 -2.0658
  100SOL    HW2  342   1.087   4.419   1.297 -0.0076 -1.2368  0.3056
  101SOL     OW  343   5.290   5.249   1.694 -0.0908 -0.6856  0.1473
  101SOL    HW1  344   5.227   5.280   1.759  1.4296  1.0336  0.8781
  101SOL    HW2  345   5.316   5.162   1.726  1.8779  0.7487  2.9360
  102SOL     OW  346   0.657   0.847   0.194  0.3365  0.0671  0.4187
  102SOL    HW1  347   0.599   0.771   0.183 -1.3248  1.4034 -0.5329
  102SOL    HW2  348   0.642   0.876   0.284  0.5393 -0.3862  0.5996
  103SOL     OW  349   4.964   4.518   0.912  0.1074 -0.2189 -0.4496
  103SOL    HW1  350   5.043   4.572   0.916  0.4826 -0.7926  0.0486
  103SOL    HW2  351   4.954   4.483   1.000 -0.8208 -0.0001 -0.4492
  104SOL     OW  352   1.737   4.831   0.778 -0.1170 -0.3452  0.6074
  104SOL    HW1  353   1.817   4.878   0.799 -0.1963 -0.4806  1.2623
  104SOL    HW2  354   1.745   4.748   0.826 -1.0888  0.0601  1.5332
  105SOL     OW  355   4.444   1.463   1.609  0.3228  0.3859 -0.1314
  105SOL    HW1  356   4.463   1.437   1.699  1.1127  0.8994 -0.1399
  105SOL    HW2  357   4.388   1.540   1.617  0.9944  0.8754 -0.0619
  106SOL     OW  358   0.403   0.639   0.533 -0.2906 -0.0029  0.3554
  106SOL    HW1  359   0.358   0.714   0.495  0.5099  0.3266  0.0411
  106SOL    HW2  360   0.386   0.645   0.627 -0.0235  0.7150  0.3645
  107SOL     OW  361   0.557   4.442   0.550  0.2845  0.3670  0.2514
  107SOL    HW1  362   0.503   4.363   0.560  2.2366 -0.7343  3.6758
  107SOL    HW2  363   0.515   4.507   0.607  1.3750  0.1411  1.3475
  108SOL     OW  364   1.402   1.311   0.568 -0.1761 -0.2223  0.2663
  108SOL    HW1  365   1.406   1.407   0.559 -2.0975 -0.0591  0.5985
  108SOL    HW2  366   1.326   1.286   0.515 -0.7364 -1.3475  1.5455
  109SOL     OW  367   0.926   1.811   1.005  0.7458  0.0047 -0.1129
  109SOL    HW1  368   0.990   1.746   1.033 -1.0128 -1.3802  0.9515
  109SOL    HW2  369   0.880   1.769   0.932  1.1221  1.0440 -0.9719
  110SOL     OW  370   1.385   0.512   0.616 -0.2219 -0.1631  0.5486
  110SOL    HW1  371   1.379   0.473   0.703  0.4298  0.1387  0.7410
  110SOL    HW2  372   1.440   0.451   0.566 -1.4518 -0.8705  0.0226
  111SOL     OW  373   4.929   5.583   1.862  0.1317  0.2851  0.3444
  111SOL    HW1  374   4.973   5.611   1.942 -1.9392  0.7295  1.3912
  111SOL    HW2  375   4.840   5.563   1.889  0.2392 -2.8923 -1.2572
  112SOL     OW  376   4.934   4.924   1.488  0.3192 -0.1333 -0.2024
  112SOL    HW1  377   4.971   4.919   1.576  0.8861 -1.8318 -0.5038
  112SOL    HW2  378   5.004   4.961   1.434  0.1910  0.3193 -0.0612
  113SOL     OW  379   1.620   5.099   1.586 -0.7215 -0.2231 -0.1318
  113SOL    HW1  380   1.684   5.099   1.658  1.4242 -0.7086 -1.9088
  113SOL    HW2  381   1.593   5.190   1.577  1.1127  0.3397 -0.4131
  114SOL     OW  382   5.144   4.010   1.658 -0.2479  0.2222 -0.4172
  114SOL    HW1  383   5.064   3.997   1.608 -0.4138  1.6860 -0.5792
  114SOL    HW2  384   5.120   3.991   1.748 -0.0721 -1.9544 -0.7702
  115SOL     OW  385   4.647   4.073   1.776  0.7715 -0.2182 -0.1144
  115SOL    HW1  386   4.639   4.144   1.839  2.3154 -0.9254  0.9235
  115SOL    HW2  387   4.702   4.109   1.706 -0.0355  0.2088 -0.5432
  116SOL     OW  388   4.979   4.887   1.145 -0.8619 -0.4362  0.2321
  116SOL    HW1  389   4.939   4.974   1.144 -1.4596 -0.6900  1.2286
  116SOL    HW2  390   5.052   4.896   1.207 -0.5450 -0.4830 -0.1335
  117SOL     OW  391   1.325   4.951   1.022  0.0759  0.2397 -0.1329
  117SOL    HW1  392   1.348   4.893   1.096 -0.2146  1.2918  0.8044
  117SOL    HW2  393   1.310   4.891   0.949 -0.2480 -0.8846  0.8195
  118SOL     OW  394   1.005   0.620   0.471  0.0007 -0.5421  0.0875
  118SOL    HW1  395   0.960   0.566   0.405 -2.3951 -0.0387  1.2294
  118SOL    HW2  396   0.987   0.576   0.554  0.5498  0.4183  0.7282
  119SOL     OW  397   4.389   4.271   1.327 -0.0139  0.0341  0.0848
  119SOL    HW1  398   4.331   4.248   1.254 -0.0524 -1.7265  0.6238
  119SOL    HW2  399   4.369   4.363   1.345 -0.6207  0.2659 -1.5484
  120SOL     OW  400   4.534   0.962   0.960  1.2436  0.2399 -0.0501
  120SOL    HW1  401   4.529   0.927   1.049  2.8865  1.2289  0.4744
  120SOL    HW2  402   4.458   0.924   0.915  0.3824 -0.2832  1.7542
  121SOL     OW  403   0.910   0.700   0.961  0.2602 -0.1967 -0.0955
  121SOL    HW1  404   0.842   0.765   0.942  1.1602  0.6180 -0.6220
  121SOL    HW2  405   0.992   0.748   0.949  0.9265 -1.1964  0.4188
  122SOL     OW  406   1.766   5.495   1.865 -0.1080 -0.1125 -1.1289
  122SOL    HW1  407   1.753   5.545   1.784 -1.4416  0.3699 -0.6549
  122SOL    HW2  408   1.677   5.470   1.891  0.3201 -0.4435  0.0709
  123SOL     OW  409   4.464   4.399   1.040 -0.2576 -0.3769  0.1972
  123SOL    HW1  410   4.468   4.478   0.987  0.5054 -0.7873 -0.3807
  123SOL    HW2  411   4.540   4.405   1.098 -0.5751 -0.3652  0.6146
  124SOL     OW  412   1.539   0.682   0.223  0.3173  0.3685  0.0499
  124SOL    HW1  413   1.479   0.731   0.279  0.0994  0.8687 -0.5994
  124SOL    HW2  414   1.599   0.748   0.188  0.1471  0.1465 -0.6809
  125SOL     OW  415   0.711   0.878   0.857  0.0970 -0.5099  0.2229
  125SOL    HW1  416   0.758   0.850   0.779 -0.4213  0.0327 -0.2947
  125SOL    HW2  417   0.619   0.883   0.830 -0.0034  0.3454  0.6590
  126SOL     OW  418   1.113   1.565   1.442 -0.6494 -0.0463 -0.2583
  126SOL    HW1  419   1.062   1.535   1.517 -1.4783  0.0353 -0.7748
  126SOL    HW2  420   1.047   1.582   1.374 -0.0533  1.4394 -0.4786
  127SOL     OW  421   2.193   1.511   1.420 -0.4805  0.2156 -0.1209
  127SOL    HW1  422   2.114   1.458   1.419 -0.5688  0.3512 -0.6603
  127SOL    HW2  423   2.248   1.474   1.350 -0.4160  0.6399 -0.2976
  128SOL     OW  424   4.737   5.112   1.596  0.1971  0.6331  0.1534
  128SOL    HW1  425   4.796   5.053   1.550 -0.1910  0.9170 -0.7153
  128SOL    HW2  426   4.744   5.196   1.550  0.2600  1.1026  0.9813
  129SOL     OW  427   3.774   2.752   2.970 -0.0040 -0.3107 -0.3064
  129SOL    HW1  428   3.859   2.714   2.993  0.4915  0.3307 -1.0673
  129SOL    HW2  429   3.720   2.735   3.048  1.3007  0.7779  0.8967
  130SOL     OW  430   3.514   2.893   2.927  0.3302  0.1367 -0.1713
  130SOL    HW1  431   3.591   2.866   2.876  0.5665  0.4815 -0.0078
  130SOL    HW2  432   3.439   2.863   2.875  0.5757 -0.6448 -0.0846
  131SOL     OW  433   4.810   1.255   0.938 -1.2452 -0.4320  0.0743
  131SOL    HW1  434   4.864   1.334   0.935 -0.2152 -0.9686  2.2120
  131SOL    HW2  435   4.840   1.203   0.864  0.4704 -0.2328  0.5673
  132SOL     OW  436   0.734   0.832   0.586  0.0811 -0.1899 -0.8151
  132SOL    HW1  437   0.660   0.871   0.539 -1.3548 -0.8936  0.7333
  132SOL    HW2  438   0.728   0.738   0.566 -0.4852 -0.4832  0.6042
  133SOL     OW  439   5.061   4.282   1.076  0.3515  0.3441  0.1224
  133SOL    HW1  440   5.070   4.258   1.168  1.3821 -2.1396 -0.5529
  133SOL    HW2  441   5.004   4.215   1.039  1.0751  0.5009 -1.3349
  134SOL     OW  442   1.234   4.548   1.693  0.0474 -0.1955 -0.6863
  134SOL    HW1  443   1.214   4.526   1.783 -1.6635 -2.6599 -1.5750
  134SOL    HW2  444   1.236   4.644   1.691 -2.9984  0.0156  1.3321
  135SOL     OW  445   1.221   4.471   1.400 -0.5200  0.3161  0.3814
  135SOL    HW1  446   1.300   4.428   1.367 -0.4262  0.4441  0.4352
  135SOL    HW2  447   1.251   4.518   1.478 -0.7400  0.0021  0.6583
  136SOL     OW  448   4.265   0.942   0.281 -0.0970  0.4004 -0.3165
  136SOL    HW1  449   4.213   0.869   0.317  1.0097  0.1485  0.8436
  136SOL    HW2  450   4.335   0.954   0.345 -0.2530  2.4975 -0.5000
  137SOL     OW  451   4.359   1.566   1.123 -0.1037 -0.1392  0.3720
  137SOL    HW1  452   4.451   1.572   1.149 -0.0571  0.5843  0.0527
  137SOL    HW2  453   4.347   1.473   1.103  0.8443 -0.0771 -0.6120
  138SOL     OW  454   4.296   1.766   0.949 -0.1564  0.2062 -0.7944
  138SOL    HW1  455   4.299   1.687   1.002 -2.3542 -0.2372 -1.2190
  138SOL    HW2  456   4.281   1.734   0.860 -1.6962  1.0892 -0.8765
  139SOL     OW  457   1.127   5.011   1.248  0.6032 -0.0177 -0.2673
  139SOL    HW1  458   1.114   4.926   1.291 -0.1590  0.9292  1.4797
  139SOL    HW2  459   1.177   4.991   1.169 -1.2365 -2.3552 -0.9553
  140SOL     OW  460   4.476   4.338   1.673 -0.4493  0.5504 -0.0915
  140SOL    HW1  461   4.467   4.329   1.578  1.7552 -0.3972 -0.2711
  140SOL    HW2  462   4.528   4.417   1.685  0.2642  0.0400  0.2465
  141SOL     OW  463   4.261   4.556   1.807  0.9818  0.1753  0.4741
  141SOL    HW1  464   4.273   4.583   1.716  1.5714  0.7841  0.7223
  141SOL    HW2  465   4.332   4.600   1.854  1.2601 -0.8936  1.0761
  142SOL     OW  466   1.442   4.896   1.603 -0.1018 -0.1012  0.0286
  142SOL    HW1  467   1.509   4.963   1.601 -0.2012 -0.0130 -0.4524
  142SOL    HW2  468   1.360   4.944   1.613 -0.3397 -0.0070 -1.9716
  143SOL     OW  469   0.887   0.420   0.293 -0.4879  0.1144 -0.0632
  143SOL    HW1  470   0.822   0.480   0.257 -0.8125 -0.5869 -0.6568
  143SOL    HW2  471   0.837   0.361   0.349 -0.3636 -0.4078 -0.4988
  144SOL     OW  472   1.620   0.705   0.971  0.2491  0.0703  0.3088
  144SOL    HW1  473   1.683   0.765   1.012  0.7822 -0.1044 -0.2394
  144SOL    HW2  474   1.672   0.628   0.948 -0.3245 -0.3912  0.5260
  145SOL     OW  475   4.264   1.629   1.884  0.3149 -0.2282  0.1950
  145SOL    HW1  476   4.278   1.716   1.922  0.9418 -0.6090  0.8685
  145SOL    HW2  477   4.258   1.644   1.789 -0.8482  0.6859  0.4075
  146SOL     OW  478   5.197   4.625   1.278  0.2472 -0.2943  0.1535
  146SOL    HW1  479   5.149   4.591   1.354  1.6234 -0.1538  1.1415
  146SOL    HW2  480   5.256   4.554   1.253  1.5300  0.4874  0.7978
  147SOL     OW  481   5.094   1.372   1.263 -0.2595  0.6361 -0.4626
  147SOL    HW1  482   5.052   1.457   1.253  0.4061  1.2477  1.4915
  147SOL    HW2  483   5.156   1.367   1.190  1.9902  3.2758  1.0644
  148SOL     OW  484   4.405   5.226   1.571 -0.0811 -0.4332 -0.3296
  148SOL    HW1  485   4.367   5.275   1.643 -0.6178 -0.7797 -0.3731
  148SOL    HW2  486   4.495   5.258   1.565 -0.0909 -0.2703  0.3674
  149SOL     OW  487   1.227   0.925   1.103  0.0611 -0.4782 -0.1833
  149SOL    HW1  488   1.183   0.879   1.175 -3.0116 -0.0618 -1.6157
  149SOL    HW2  489   1.178   1.007   1.094  1.7523  0.4606 -1.3752
  150SOL     OW  490   0.991   0.890   0.553 -0.1402 -0.0464 -0.5697
  150SOL    HW1  491   0.897   0.873   0.561  0.0631 -0.4157  1.4445
  150SOL    HW2  492   1.027   0.808   0.516 -0.5216 -0.1094 -0.8061
  151SOL     OW  493   1.466   1.546   0.885  0.0379 -0.5122 -0.8943
  151SOL    HW1  494   1.421   1.510   0.962 -0.2719 -1.3538 -1.4534
  151SOL    HW2  495   1.402   1.607   0.846  1.0848  1.8891  0.8749
  152SOL     OW  496   5.197   1.781   1.308 -0.2376  0.1075 -0.0676
  152SOL    HW1  497   5.188   1.790   1.213  0.0879 -0.0335 -0.1118
  152SOL    HW2  498   5.235   1.863   1.337 -3.1926  1.4483  0.3453
  153SOL     OW  499   3.791   1.922   1.057  0.1361  0.5280  0.0804
  153SOL    HW1  500   3.866   1.863   1.067  0.1433  0.5179 -0.0355
  153SOL    HW2  501   3.752   1.898   0.974  0.5546  1.1617 -0.3091
  154SOL     OW  502   5.050   1.746   1.718 -0.3483  0.5200 -0.3771
  154SOL    HW1  503   5.040   1.757   1.813 -3.3250  3.0428 -0.8179
  154SOL    HW2  504   5.120   1.808   1.695 -1.1734  1.6139 -0.0382
  155SOL     OW  505   2.606   2.464   2.645 -0.5410 -0.5300  0.0226
  155SOL    HW1  506   2.616   2.413   2.725 -0.4737 -0.4637  0.0561
  155SOL    HW2  507   2.523   2.510   2.656  1.0915  2.2993  1.6275
  156SOL     OW  508   1.722   4.117   0.593  0.3604  0.3623  0.2198
  156SOL    HW1  509   1.798   4.100   0.536  0.0676 -0.9088  0.1812
  156SOL    HW2  510   1.663   4.044   0.576  0.1903  0.0495  2.0584
  157SOL     OW  511   1.364   1.596   0.565  0.4234 -0.1864 -0.5951
  157SOL    HW1  512   1.318   1.616   0.483  0.8883 -0.5449 -0.9476
  157SOL    HW2  513   1.322   1.653   0.630  0.1258  0.1846 -1.1011
  158SOL     OW  514   4.447   5.798   2.457  0.6331 -0.0738  0.2791
  158SOL    HW1  515   4.521   5.825   2.404 -0.1149  0.5563 -0.4755
  158SOL    HW2  516   4.462   5.838   2.542  0.7125  0.8060 -0.1368
  159SOL     OW  517   1.329   0.794   0.735  0.1141 -0.6279  0.4393
  159SOL    HW1  518   1.240   0.823   0.756  0.2559 -1.5178  2.5265
  159SOL    HW2  519   1.319   0.704   0.706  0.3016 -0.6346  0.3956
  160SOL     OW  520   5.178   5.307   1.448  0.0038  0.7157  0.3307
  160SOL    HW1  521   5.106   5.358   1.484 -0.3551  0.2848  0.2405
  160SOL    HW2  522   5.224   5.272   1.524 -0.3294  0.3855  0.3826
  161SOL     OW  523   0.915   1.371   0.347 -0.0288 -0.6184 -0.2069
  161SOL    HW1  524   0.827   1.352   0.313 -0.5817  0.6177  0.4654
  161SOL    HW2  525   0.933   1.301   0.409 -1.0549 -0.2529  0.5356
  162SOL     OW  526   1.219   2.251   1.034 -0.2532 -0.2509 -0.3840
  162SOL    HW1  527   1.144   2.280   1.086 -0.7391 -0.9963 -0.6554
  162SOL    HW2  528   1.224   2.315   0.962  1.6236  1.9807  1.5449
  163SOL     OW  529   1.902   4.427   1.010  0.9207  0.4042  0.2243
  163SOL    HW1  530   1.886   4.349   0.956 -1.2742  0.9335  0.0423
  163SOL    HW2  531   1.907   4.393   1.100 -1.0937  0.1179  0.2729
  164SOL     OW  532   4.594   4.516   0.497 -0.0339  0.3566  0.6386
  164SOL    HW1  533   4.602   4.457   0.421 -1.8137 -0.8280  1.3074
  164SOL    HW2  534   4.600   4.604   0.459  0.6853 -0.2189 -0.6616
  165SOL     OW  535   3.490   3.476   3.018  0.4916 -0.2866 -0.5988
  165SOL    HW1  536   3.450   3.403   3.064  1.6956  0.1087  1.1900
  165SOL    HW2  537   3.429   3.549   3.029  1.0264 -0.0338  0.9746
  166SOL     OW  538   5.019   0.996   1.245  0.1538 -0.3834  0.4624
  166SOL    HW1  539   4.976   1.080   1.263  0.7439  0.2311 -0.8095
  166SOL    HW2  540   5.085   0.988   1.313  0.0187  0.1337  0.6650
  167SOL     OW  541   2.624   3.012   2.893  0.0960  0.1137 -0.1380
  167SOL    HW1  542   2.699   3.071   2.885  1.5003 -1.6382 -0.7599
  167SOL    HW2  543   2.618   2.993   2.986 -1.6244  2.6718  0.3605
  168SOL     OW  544   1.491   1.402   0.126 -0.3019 -0.4456 -0.2194
  168SOL    HW1  545   1.440   1.370   0.052 -1.9676  0.5467  0.4448
  168SOL    HW2  546   1.430   1.403   0.199  0.9399 -0.1148  0.8569
  169SOL     OW  547   4.571   1.569   1.351 -0.3318  0.2937 -0.4301
  169SOL    HW1  548   4.646   1.512   1.367  0.2491  1.2408  0.4203
  169SOL    HW2  549   4.526   1.574   1.436 -1.6841 -0.6784 -1.0585
  170SOL     OW  550   1.076   1.598   1.048 -0.1090 -0.1397 -0.1294
  170SOL    HW1  551   1.164   1.581   1.082  0.1741  0.2633 -0.6504
  170SOL    HW2  552   1.026   1.519   1.070  1.2528 -1.8711 -2.8082
  171SOL     OW  553   1.165   1.446   0.734 -0.2461  0.2037 -0.4843
  171SOL    HW1  554   1.246   1.483   0.698  0.3249  1.0448  1.5297
  171SOL    HW2  555   1.103   1.448   0.661  1.2470  0.4858 -1.7954
  172SOL     OW  556   1.297   4.418   0.854  0.0808  0.0935 -0.3559
  172SOL    HW1  557   1.268   4.330   0.878 -1.4882  1.0718  1.6484
  172SOL    HW2  558   1.223   4.456   0.806 -0.1366  1.0086  0.6595
  173SOL     OW  559   0.951   1.181   0.546 -0.3077  0.6053  0.2193
  173SOL    HW1  560   0.910   1.196   0.631 -0.0050  1.5457  0.2142
  173SOL    HW2  561   0.940   1.087   0.530 -2.6946  0.8292  0.0941
  174SOL     OW  562   1.653   4.706   1.625 -0.2973 -0.2495  0.0165
  174SOL    HW1  563   1.583   4.769   1.641  0.2821  0.4718 -0.1937
  174SOL    HW2  564   1.691   4.734   1.541 -0.1684 -1.0114 -0.1867
  175SOL     OW  565   4.694   1.343   0.573  0.4250  0.4729  0.3200
  175SOL    HW1  566   4.714   1.404   0.645  0.1316 -0.4660  1.2265
  175SOL    HW2  567   4.601   1.356   0.556  0.4269  0.4784  0.3132
  176SOL     OW  568   4.513   4.966   1.720 -0.1024 -0.2063 -0.0680
  176SOL    HW1  569   4.435   5.020   1.716 -0.0533 -0.0876  0.4996
  176SOL    HW2  570   4.583   5.020   1.683 -0.8204 -1.3794 -3.5891
  177SOL     OW  571   5.046   4.274   1.519 -0.0994 -0.4253  0.3876
  177SOL    HW1  572   5.011   4.355   1.482  4.8541  1.4805 -0.9700
  177SOL    HW2  573   5.006   4.205   1.467  0.0386  1.6525 -2.7618
  178SOL     OW  574   6.293   2.522   2.993 -0.6842  0.1148 -0.3720
  178SOL    HW1  575   6.357   2.458   2.962 -1.0183 -0.8351  0.8381
  178SOL    HW2  576   6.341   2.575   3.057 -0.3279  1.3078 -1.5713
  179SOL     OW  577   1.552   0.918   1.228 -0.1152  0.2985 -0.0383
  179SOL    HW1  578   1.574   1.007   1.200 -0.7303  0.0086 -1.5054
  179SOL    HW2  579   1.478   0.930   1.288  0.7535  0.8666  0.9654
  180SOL     OW  580   0.684   4.546   0.323  0.0521  0.2798  0.1535
  180SOL    HW1  581   0.630   4.600   0.266  0.2259 -0.0244 -0.3071
  180SOL    HW2  582   0.626   4.523   0.396 -0.0180  1.0910  0.3595
  181SOL     OW  583   1.186   1.070   0.068  0.1121  0.1715 -0.3596
  181SOL    HW1  584   1.218   1.034   0.151 -0.1296  0.6675 -0.0435
  181SOL    HW2  585   1.091   1.059   0.073  0.0541  0.6492 -0.3502
  182SOL     OW  586   5.165   5.001   1.338 -0.0070  0.0839 -0.3364
  182SOL    HW1  587   5.194   5.089   1.316 -0.4039 -0.1246 -1.7885
  182SOL    HW2  588   5.241   4.946   1.323  0.5053  0.2519  1.4023
  183SOL     OW  589   1.219   2.460   0.816  0.0556  0.0291  0.2114
  183SOL    HW1  590   1.287   2.479   0.752  0.0692 -1.9892 -0.4508
  183SOL    HW2  591   1.138   2.493   0.777  0.5647  2.1568  0.8652
  184SOL     OW  592   4.710   4.674   2.001  0.9246  0.3898  0.0937
  184SOL    HW1  593   4.778   4.666   2.068  1.0890  1.0816  0.0110
  184SOL    HW2  594   4.698   4.768   1.989  0.4574  0.2718 -0.4051
  185SOL     OW  595   1.503   1.334   1.420 -0.0226 -0.3962  0.1437
  185SOL    HW1  596   1.523   1.422   1.389 -0.7826 -0.1321  0.3677
  185SOL    HW2  597   1.427   1.346   1.478  0.8819 -0.9744  1.5020
  186SOL     OW  598   5.145   2.186   1.554  0.1815  0.8126  0.4869
  186SOL    HW1  599   5.109   2.213   1.469 -1.0125  0.8238  0.9731
  186SOL    HW2  600   5.225   2.238   1.564  1.2430 -0.3437 -1.3372
  187SOL     OW  601   1.615   0.413   0.259  0.3501  0.4823 -0.6325
  187SOL    HW1  602   1.585   0.503   0.267  1.2623  0.7552 -0.1587
  187SOL    HW2  603   1.633   0.385   0.348  0.1243 -0.1610 -0.7781
  188SOL     OW  604   0.527   0.934   0.433 -0.2741 -0.6386  0.7044
  188SOL    HW1  605   0.517   1.027   0.410  0.2247 -0.4878  1.0631
  188SOL    HW2  606   0.441   0.896   0.417 -0.4412 -0.1434  0.4013
  189SOL     OW  607   1.847   4.977   1.184 -0.1970  0.2980 -0.0636
  189SOL    HW1  608   1.841   5.059   1.134  0.5710  0.4844  0.1406
  189SOL    HW2  609   1.906   4.997   1.256  0.9588 -0.7629 -0.6849
  190SOL     OW  610   3.118   3.087   2.965 -0.4581 -0.1342  0.0968
  190SOL    HW1  611   3.145   2.997   2.982  3.2237  0.5339 -1.3022
  190SOL    HW2  612   3.114   3.094   2.870 -2.1217  0.8645  0.2012
  191SOL     OW  613   4.931   1.726   1.023 -0.5161  0.1852 -0.0025
  191SOL    HW1  614   4.886   1.735   0.939  0.9494 -0.5979 -0.9188
  191SOL    HW2  615   5.024   1.735   1.002  0.3554 -4.7260  0.6509
  192SOL     OW  616   0.789   1.213   0.760 -0.0342 -0.3065 -0.0965
  192SOL    HW1  617   0.702   1.201   0.722 -1.0495  0.9863  1.7278
  192SOL    HW2  618   0.794   1.148   0.830 -0.2225  0.7280  0.9028
  193SOL     OW  619   1.313   0.943   0.331  0.1069 -0.3715 -0.3918
  193SOL    HW1  620   1.316   0.858   0.375 -2.0895  0.7990  2.3195
  193SOL    HW2  621   1.395   0.986   0.356 -0.4045 -0.3510  1.4347
  194SOL     OW  622   1.800   1.964   0.810 -0.2306  0.4782  0.0656
  194SOL    HW1  623   1.737   1.892   0.805  1.0858 -0.6333 -1.0434
  194SOL    HW2  624   1.841   1.955   0.896 -0.2686  0.0890  0.0412
  195SOL     OW  625   4.763   5.386   1.549  0.5215 -0.4964 -0.3937
  195SOL    HW1  626   4.852   5.399   1.580  0.0842  1.6020  0.1394
  195SOL    HW2  627   4.711   5.373   1.629  0.2479 -1.0634 -0.6573
  196SOL     OW  628   4.269   1.041   0.723  0.5152 -0.4132  0.5029
  196SOL    HW1  629   4.180   1.076   0.711  0.3419 -0.8741  0.4420
  196SOL    HW2  630   4.256   0.948   0.742  1.0460 -0.8102 -0.9115
  197SOL     OW  631   4.716   1.586   1.610  0.1706 -1.1027 -0.7528
  197SOL    HW1  632   4.761   1.641   1.546  0.6203 -0.5203  0.0574
  197SOL    HW2  633   4.628   1.622   1.616 -0.5732 -2.4213 -2.5603
  198SOL     OW  634   1.716   4.748   1.361 -0.1301 -0.3275 -0.4461
  198SOL    HW1  635   1.700   4.783   1.274  0.6758 -1.1356 -0.9368
  198SOL    HW2  636   1.783   4.681   1.348 -1.2084 -1.6575  0.5226
  199SOL     OW  637   0.799   4.714   0.974 -0.0465 -0.1216  0.3683
  199SOL    HW1  638   0.788   4.809   0.981 -0.1928 -0.0841 -0.2512
  199SOL    HW2  639   0.791   4.681   1.063  0.3196  0.4814  0.6286
  200SOL     OW  640   1.939   1.282   0.860  0.5938  0.4976 -0.3434
  200SOL    HW1  641   1.923   1.198   0.818 -2.1161  0.8635 -0.1917
  200SOL    HW2  642   1.990   1.261   0.938 -0.3861 -1.0670 -0.0949
  201SOL     OW  643   4.646   4.545   1.367 -0.2293  0.3739  0.0874
  201SOL    HW1  644   4.658   4.621   1.425  0.5482 -1.1697  2.0657
  201SOL    HW2  645   4.551   4.533   1.363 -0.3392  1.1282  0.1856
  202SOL     OW  646   0.790   1.667   0.772 -0.1047 -0.3343 -0.1656
  202SOL    HW1  647   0.798   1.762   0.763  0.6425 -0.1932  1.5284
  202SOL    HW2  648   0.817   1.633   0.687  0.1471  0.9459 -0.6282
  203SOL     OW  649   1.717   4.621   0.947 -0.3442  0.4414 -0.1588
  203SOL    HW1  650   1.784   4.555   0.965 -0.6020 -0.9906 -3.5927
  203SOL    HW2  651   1.650   4.605   1.013  1.0599 -0.5630  1.0837
  204SOL     OW  652   0.708   4.305   0.742  0.0604  0.0269  0.5274
  204SOL    HW1  653   0.703   4.359   0.664 -0.6482 -0.1139  0.4687
  204SOL    HW2  654   0.723   4.367   0.813  2.3242  0.0225  0.1157
  205SOL     OW  655   0.505   1.172   0.332  0.5890  0.1756 -0.5402
  205SOL    HW1  656   0.590   1.207   0.306 -0.1324  1.2157 -1.5860
  205SOL    HW2  657   0.462   1.244   0.379  0.7740 -0.7765  1.1874
  206SOL     OW  658   4.863   1.561   1.229  0.2494 -0.1901  0.0828
  206SOL    HW1  659   4.862   1.633   1.292 -1.2315  1.1360 -1.3756
  206SOL    HW2  660   4.890   1.602   1.146 -1.4485 -1.0838 -0.9784
  207SOL     OW  661   1.391   0.282   0.193 -0.0100  0.2159 -0.1744
  207SOL    HW1  662   1.311   0.333   0.179 -0.5846 -0.7238 -0.4204
  207SOL    HW2  663   1.456   0.346   0.221 -0.7295  1.0664 -0.4104
  208SOL     OW  664   1.266   4.728   0.875  0.1330  0.0027  0.5364
  208SOL    HW1  665   1.173   4.725   0.852  0.0501 -0.9341  0.9592
  208SOL    HW2  666   1.283   4.644   0.919  1.3664 -0.1823 -0.2414
  209SOL     OW  667   1.631   4.709   0.546 -0.2271  0.5085 -0.4601
  209SOL    HW1  668   1.611   4.631   0.597  0.4349  0.6018 -0.0445
  209SOL    HW2  669   1.665   4.772   0.609 -0.5572  1.0660 -0.8226
  210SOL     OW  670   3.908   0.636   0.311 -0.2654  0.5068 -0.3507
  210SOL    HW1  671   3.886   0.689   0.387 -0.3149  0.0546 -0.0437
  210SOL    HW2  672   3.900   0.696   0.237 -0.0016  1.0096  0.0199
  211SOL     OW  673   0.957   1.587   0.191  0.2524  0.0684 -0.1833
  211SOL    HW1  674   0.937   1.521   0.257  2.8047 -1.8536 -1.1942
  211SOL    HW2  675   0.976   1.666   0.241  0.1747 -0.7814  1.2453
  212SOL     OW  676   4.426   5.271   2.174  0.5196 -0.1306  0.4449
  212SOL    HW1  677   4.484   5.346   2.159  2.2020 -1.7735 -2.1004
  212SOL    HW2  678   4.480   5.208   2.221 -1.1917  0.4631  3.4958
  213SOL     OW  679   2.282   2.622   0.095  0.5108  0.0715 -0.0480
  213SOL    HW1  680   2.193   2.601   0.068  0.2927 -0.5686  1.0926
  213SOL    HW2  681   2.277   2.714   0.123 -0.0292 -0.2344  0.9061
  214SOL     OW  682   4.418   5.441   2.834 -0.1623 -0.7715 -0.1522
  214SOL    HW1  683   4.390   5.358   2.875 -1.8287  0.1463  0.6876
  214SOL    HW2  684   4.376   5.440   2.748 -0.5916 -0.5812  0.0540
  215SOL     OW  685   2.523   3.317   0.177  0.7766 -0.0661 -0.3721
  215SOL    HW1  686   2.594   3.379   0.191  0.5885  0.2907 -0.9801
  215SOL    HW2  687   2.558   3.255   0.112  0.7649 -0.2726 -0.1832
  216SOL     OW  688   6.119   6.220   2.807  0.0437  0.1788  0.0011
  216SOL    HW1  689   6.062   6.193   2.735 -0.5255  1.3321 -0.0164
  216SOL    HW2  690   6.059   6.242   2.879  0.2835  2.9227 -0.5224
  217SOL     OW  691   5.132   4.894   2.310 -0.3770  0.3334  0.2416
  217SOL    HW1  692   5.158   4.818   2.258 -0.2158  1.5253 -1.4944
  217SOL    HW2  693   5.134   4.863   2.401  3.6741 -0.6423  0.0063
  218SOL     OW  694   1.643   4.622   2.153 -0.0237  0.2083  0.0690
  218SOL    HW1  695   1.690   4.574   2.221 -0.6390 -0.3322  0.1157
  218SOL    HW2  696   1.586   4.682   2.200  0.4006  0.6572  0.0154
  219SOL     OW  697   5.283   5.584   3.026  0.2688 -0.0355 -0.1028
  219SOL    HW1  698   5.215   5.628   2.976 -0.0586  1.1162  1.2860
  219SOL    HW2  699   5.280   5.625   3.112  0.1823 -2.5307  1.1936
  220SOL     OW  700   4.984   5.083   2.414  0.0495  0.2937 -0.1120
  220SOL    HW1  701   5.045   5.045   2.351 -0.9167  0.4718 -1.2000
  220SOL    HW2  702   5.026   5.164   2.442  0.7190 -0.0388 -0.1508
  221SOL     OW  703   5.288   5.927   2.829  0.8306  0.2133 -0.2207
  221SOL    HW1  704   5.242   5.844   2.812 -0.9706  0.7574  1.5586
  221SOL    HW2  705   5.336   5.945   2.748 -0.4250 -1.4977 -1.4215
  222SOL     OW  706   3.663   3.588   0.261  0.1366  0.3988 -0.0181
  222SOL    HW1  707   3.646   3.559   0.172  0.2087  0.3262 -0.0073
  222SOL    HW2  708   3.757   3.577   0.273  0.2257  0.9908 -0.1436
  223SOL     OW  709   5.632   4.722   2.534  0.0871  0.0285  0.4232
  223SOL    HW1  710   5.601   4.638   2.568  0.3419 -0.3190 -0.1825
  223SOL    HW2  711   5.676   4.763   2.608 -3.2869  1.3551  1.9005
  224SOL     OW  712   4.468   1.794   2.356 -0.4156 -0.8367  0.1239
  224SOL    HW1  713   4.421   1.780   2.438 -0.1921  0.3045  0.4551
  224SOL    HW2  714   4.547   1.740   2.364 -0.1338 -0.3178  0.8826
  225SOL     OW  715   4.767   1.741   2.423 -1.0225 -0.0783  0.5297
  225SOL    HW1  716   4.835   1.700   2.369 -0.3050 -0.1485  1.4593
  225SOL    HW2  717   4.815   1.797   2.484 -1.8475  0.3613  0.7906
  226SOL     OW  718   5.093   5.731   2.862 -0.5505 -0.0833 -1.1053
  226SOL    HW1  719   5.078   5.749   2.769 -2.3486  0.7210 -0.6984
  226SOL    HW2  720   5.033   5.659   2.881  0.3110 -0.7077 -0.7076
  227SOL     OW  721   2.709   3.718   0.113 -0.0834  0.4471  0.2277
  227SOL    HW1  722   2.784   3.771   0.142 -0.6728  1.4942 -0.0977
  227SOL    HW2  723   2.695   3.656   0.185  0.0730  1.3307  1.0528
  228SOL     OW  724   4.929   4.862   1.758 -0.1851  0.1197 -0.2446
  228SOL    HW1  725   4.871   4.923   1.803 -0.4616  0.1500 -0.6292
  228SOL    HW2  726   5.006   4.855   1.814 -0.4374  0.3071  0.1268
  229SOL     OW  727   3.772   2.090   0.328  0.0320 -0.6501 -0.3811
  229SOL    HW1  728   3.713   2.119   0.398 -0.0098  0.3741 -0.8339
  229SOL    HW2  729   3.810   2.170   0.293  1.7204 -1.2641 -0.1058
  230SOL     OW  730   4.372   4.966   2.469  0.0233 -0.2764 -0.0806
  230SOL    HW1  731   4.368   4.887   2.415 -0.9632  0.5421 -1.2750
  230SOL    HW2  732   4.288   5.009   2.454 -0.3679 -0.1122  2.3246
  231SOL     OW  733   1.679   1.617   2.071  0.3106 -0.2824  0.3455
  231SOL    HW1  734   1.643   1.546   2.017  0.6714  0.6167 -1.1231
  231SOL    HW2  735   1.762   1.640   2.029 -0.4614  1.9742 -0.1174
  232SOL     OW  736   4.585   5.375   1.765 -0.2027  0.3004  0.0158
  232SOL    HW1  737   4.493   5.371   1.789 -0.5728  3.8784 -0.2747
  232SOL    HW2  738   4.629   5.405   1.844  0.9696 -2.1914  0.4255
  233SOL     OW  739   1.733   5.283   2.349  0.1431 -0.1874  0.0035
  233SOL    HW1  740   1.696   5.294   2.437 -0.7496 -0.6826 -0.3034
  233SOL    HW2  741   1.770   5.369   2.328  0.2587 -0.0266  0.8120
  234SOL     OW  742   1.864   5.424   2.567  0.1706 -0.5040  0.1454
  234SOL    HW1  743   1.934   5.489   2.559  0.7126 -1.2460 -2.0161
  234SOL    HW2  744   1.899   5.359   2.628 -0.2147  0.9657  2.0093
  235SOL     OW  745   5.233   5.719   2.390  0.2694  0.2340 -0.2276
  235SOL    HW1  746   5.325   5.739   2.374  0.1208 -1.1720 -3.8539
  235SOL    HW2  747   5.229   5.624   2.395 -0.9033  0.3106  0.9763
  236SOL     OW  748   3.257   3.154   0.628  0.0906  0.4657 -0.1136
  236SOL    HW1  749   3.293   3.068   0.649 -1.5059 -0.2810 -0.2913
  236SOL    HW2  750   3.283   3.209   0.703  0.5239 -0.3378  0.3435
  237SOL     OW  751   5.103   4.457   2.525 -0.2085 -0.0886 -0.3338
  237SOL    HW1  752   5.061   4.446   2.610  0.5870  0.5359  0.1517
  237SOL    HW2  753   5.037   4.502   2.472 -0.3693  0.3944  0.2573
  238SOL     OW  754   2.396   3.289   0.425  0.5471  0.2112 -0.6970
  238SOL    HW1  755   2.468   3.254   0.478  0.5391  0.2040 -0.6909
  238SOL    HW2  756   2.426   3.279   0.335  0.1579 -0.6523 -0.7387
  239SOL     OW  757   5.858   5.641   2.370  0.0893  0.0770  0.0979
  239SOL    HW1  758   5.938   5.663   2.323  0.4593 -0.4974  0.4541
  239SOL    HW2  759   5.788   5.652   2.305  0.3995  1.0146 -0.0886
  240SOL     OW  760   5.804   5.763   3.051  0.2934 -0.0678  0.0945
  240SOL    HW1  761   5.830   5.849   3.018  0.0077 -0.1723 -0.4181
  240SOL    HW2  762   5.783   5.712   2.973  3.0272 -1.5066  0.1658
  241SOL     OW  763   2.031   2.022   2.774  0.1666 -0.1789  0.4807
  241SOL    HW1  764   2.096   1.961   2.809  0.2388  0.1547  0.9338
  241SOL    HW2  765   1.947   1.983   2.797  0.1387 -1.6654 -1.8694
  242SOL     OW  766   4.564   5.067   2.282  0.2379 -0.1817  0.5591
  242SOL    HW1  767   4.548   5.086   2.375  1.4164 -2.2386  1.2578
  242SOL    HW2  768   4.641   5.010   2.283 -1.4228 -2.6323 -1.4683
  243SOL     OW  769   5.418   4.723   2.868  0.0104  0.0794 -0.3008
  243SOL    HW1  770   5.509   4.735   2.893  0.1917 -0.4532 -0.6989
  243SOL    HW2  771   5.418   4.644   2.814 -0.5503  0.5440 -0.9986
  244SOL     OW  772   5.653   5.748   2.228  0.1877  0.0459  0.0147
  244SOL    HW1  773   5.611   5.830   2.254  0.8229 -0.0552  1.4339
  244SOL    HW2  774   5.654   5.751   2.132 -1.3502  0.8873 -0.0052
  245SOL     OW  775   2.765   3.108   0.346 -0.6412  0.2728 -0.2418
  245SOL    HW1  776   2.854   3.107   0.380 -0.8127 -0.0372  0.2012
  245SOL    HW2  777   2.776   3.103   0.251 -0.2260 -2.6945 -0.1317
  246SOL     OW  778   3.072   2.879   0.321  0.4413 -0.1230  0.0709
  246SOL    HW1  779   3.083   2.967   0.285 -0.0933  0.4238  1.1748
  246SOL    HW2  780   3.155   2.835   0.304 -0.1642 -0.3264 -2.8585
  247SOL     OW  781   5.293   5.031   1.875  0.0523 -0.2014  0.3404
  247SOL    HW1  782   5.268   5.093   1.944  1.7360 -0.6323  1.4086
  247SOL    HW2  783   5.242   4.952   1.895  1.1275 -0.6112  1.6502
  248SOL     OW  784   4.352   5.157   2.874  0.2277  0.2261 -0.1453
  248SOL    HW1  785   4.421   5.124   2.931  0.3729 -0.0931 -0.5035
  248SOL    HW2  786   4.282   5.184   2.934 -0.7072 -2.5075  0.1142
  249SOL     OW  787   5.223   4.779   1.934 -0.5963  0.0944  0.2926
  249SOL    HW1  788   5.234   4.689   1.903  1.4458  0.1852  0.6561
  249SOL    HW2  789   5.284   4.788   2.007  0.2294  2.1584 -0.5635
  250SOL     OW  790   5.454   5.245   2.295 -0.1047  0.1250  0.2176
  250SOL    HW1  791   5.455   5.205   2.382  1.4770 -1.3977 -0.4484
  250SOL    HW2  792   5.489   5.333   2.308 -0.6685  0.2153  1.2161
  251SOL     OW  793   2.802   2.494   0.073  0.3574 -0.3386 -0.3539
  251SOL    HW1  794   2.769   2.452   0.152  0.3859 -1.7119 -1.0433
  251SOL    HW2  795   2.854   2.568   0.105  1.9565 -1.9600  1.0383
  252SOL     OW  796   5.326   1.453   1.896 -0.1053  0.2692 -0.0049
  252SOL    HW1  797   5.312   1.532   1.947 -2.9687  0.2295 -0.5957
  252SOL    HW2  798   5.276   1.385   1.941  0.9877 -0.8386 -0.4020
  253SOL     OW  799   4.493   1.987   2.664  0.2524  0.1434 -0.1780
  253SOL    HW1  800   4.578   1.962   2.700 -0.3399 -1.6702  0.0449
  253SOL    HW2  801   4.511   2.066   2.613  2.2445 -0.7416 -0.9194
  254SOL     OW  802   6.129   5.028   3.013  0.3448  0.2958 -1.0360
  254SOL    HW1  803   6.118   5.069   3.099  2.0813  0.6497 -0.9361
  254SOL    HW2  804   6.114   5.098   2.950  0.0432  0.2712 -0.9942
  255SOL     OW  805   3.192   3.319   0.414 -0.2891 -0.1287 -0.0997
  255SOL    HW1  806   3.248   3.276   0.480 -0.6536  0.4527  0.6049
  255SOL    HW2  807   3.247   3.389   0.380 -0.5337  0.3613  0.4999
  256SOL     OW  808   4.705   5.495   2.018  0.6359  0.1561 -0.1434
  256SOL    HW1  809   4.653   5.520   2.095  0.0321 -0.7632 -0.2298
  256SOL    HW2  810   4.777   5.444   2.054  1.2454  1.0709 -0.0590
  257SOL     OW  811   5.940   5.047   2.640  0.5266 -0.0563  0.9214
  257SOL    HW1  812   5.994   5.026   2.563  2.0094  1.9884  1.3062
  257SOL    HW2  813   5.927   4.963   2.684  0.9452 -1.0410 -0.7516
  258SOL     OW  814   5.501   1.792   1.851  0.0850  0.4252  0.5030
  258SOL    HW1  815   5.467   1.767   1.937 -0.2425  0.1481  0.2968
  258SOL    HW2  816   5.594   1.771   1.855  0.3267  1.5644  1.2135
  259SOL     OW  817   5.571   5.663   1.964  0.2644 -0.1765  0.3077
  259SOL    HW1  818   5.509   5.735   1.958  0.7921  0.3231  0.6604
  259SOL    HW2  819   5.551   5.607   1.889  0.5450  0.9084 -0.6047
  260SOL     OW  820   4.942   1.550   2.029 -0.3954 -0.0992  0.1539
  260SOL    HW1  821   4.862   1.524   1.984 -0.4633 -2.4192  1.4478
  260SOL    HW2  822   4.945   1.646   2.020 -1.5565 -0.2391 -2.6926
  261SOL     OW  823   1.492   4.179   1.840  0.2940 -0.0575  0.5552
  261SOL    HW1  824   1.489   4.199   1.933 -0.2228  1.3094  0.2818
  261SOL    HW2  825   1.578   4.140   1.826  1.5226  2.2459  1.1814
  262SOL     OW  826   4.861   6.025   2.897 -0.2694 -0.2812 -0.1106
  262SOL    HW1  827   4.858   5.944   2.949  1.8967 -0.3851 -0.0271
  262SOL    HW2  828   4.950   6.057   2.910 -1.0251  2.0271 -0.3213
  263SOL     OW  829   5.400   5.972   2.562 -0.5444  0.2927  0.2379
  263SOL    HW1  830   5.434   5.995   2.476  0.4303  1.3710  0.8718
  263SOL    HW2  831   5.317   6.018   2.569  0.1451  1.5393  0.4751
  264SOL     OW  832   4.517   5.173   2.595 -0.3650  0.1481 -0.3182
  264SOL    HW1  833   4.500   5.137   2.682 -0.9024 -0.7698 -0.7835
  264SOL    HW2  834   4.465   5.118   2.536 -0.2429  0.9398 -1.1893
  265SOL     OW  835   5.194   4.556   1.753 -0.7942 -0.9543 -0.1757
  265SOL    HW1  836   5.185   4.462   1.737 -0.5299 -0.7882 -1.3729
  265SOL    HW2  837   5.106   4.591   1.741 -0.2276 -0.4395 -4.2724
  266SOL     OW  838   5.156   6.109   2.945  0.2384 -0.1364  0.4568
  266SOL    HW1  839   5.150   6.183   2.884 -2.1709  1.0507  1.9301
  266SOL    HW2  840   5.199   6.040   2.896 -1.2687  0.8476 -2.4717
  267SOL     OW  841   3.587   2.579   0.248  0.5314 -0.8605 -0.1492
  267SOL    HW1  842   3.525   2.551   0.180 -0.2911 -0.6180  0.4842
  267SOL    HW2  843   3.624   2.660   0.213 -0.2303 -0.4865 -0.1223
  268SOL     OW  844   5.537   5.710   2.603  0.1605 -0.5596 -0.0010
  268SOL    HW1  845   5.491   5.789   2.574  0.0241 -1.2975 -1.9534
  268SOL    HW2  846   5.471   5.661   2.653  0.1415  0.3625  0.9097
  269SOL     OW  847   5.350   5.106   3.002 -0.1509 -0.0783 -0.1814
  269SOL    HW1  848   5.286   5.037   2.985 -0.7148  0.6829 -1.2258
  269SOL    HW2  849   5.404   5.071   3.073 -1.3444 -0.9819  0.3191
  270SOL     OW  850   4.914   4.131   2.073  0.4177  0.3562 -0.2816
  270SOL    HW1  851   4.835   4.079   2.057  0.7828 -0.3238  0.0859
  270SOL    HW2  852   4.892   4.185   2.148  0.5603 -0.4172  0.3357
  271SOL     OW  853   1.262   1.225   1.705 -0.2053 -0.0679  0.3338
  271SOL    HW1  854   1.200   1.160   1.671 -1.0744  0.2523  1.2540
  271SOL    HW2  855   1.347   1.183   1.696 -0.6615 -0.9838  0.0965
  272SOL     OW  856   4.657   4.582   2.501  0.1136  0.0371  0.9230
  272SOL    HW1  857   4.639   4.504   2.449 -1.0813  0.3285  0.8560
  272SOL    HW2  858   4.626   4.559   2.589  0.4041  0.1947  1.0675
  273SOL     OW  859   5.289   4.611   2.186  0.0637 -0.2524  0.1490
  273SOL    HW1  860   5.363   4.551   2.183  0.3696  0.1396 -0.9620
  273SOL    HW2  861   5.311   4.675   2.254  1.3673  0.5958 -1.0103
  274SOL     OW  862   3.369   3.003   0.166  0.4421  0.3730 -0.0970
  274SOL    HW1  863   3.441   3.024   0.226  0.5941  0.0364 -0.1566
  274SOL    HW2  864   3.294   3.052   0.200 -0.9412 -3.6068  3.5212
  275SOL     OW  865   5.673   5.972   2.826 -0.2147  0.0627  0.0318
  275SOL    HW1  866   5.763   5.988   2.852  0.1152 -1.3195 -0.1634
  275SOL    HW2  867   5.637   6.058   2.806  1.9329  0.4331 -2.7346
  276SOL     OW  868   5.026   5.304   2.736  0.1405 -0.5946 -0.0438
  276SOL    HW1  869   5.002   5.342   2.821  1.7065  0.2326  0.0681
  276SOL    HW2  870   4.995   5.368   2.672  0.6149 -0.2888  0.0220
  277SOL     OW  871   5.569   1.682   2.337 -0.5475  0.3400  0.2339
  277SOL    HW1  872   5.586   1.776   2.332 -1.1256  0.3907 -0.9759
  277SOL    HW2  873   5.646   1.646   2.381  1.1108  1.0071 -1.9420
  278SOL     OW  874   5.383   4.763   1.669  0.5200  0.2972  0.3139
  278SOL    HW1  875   5.391   4.822   1.743  2.9543 -0.4204  0.7010
  278SOL    HW2  876   5.318   4.698   1.697 -0.5508  1.4950  0.7233
  279SOL     OW  877   2.001   2.800   0.278 -0.1498 -0.4501  0.2867
  279SOL    HW1  878   2.085   2.840   0.255  0.5674 -2.1342 -0.1258
  279SOL    HW2  879   2.024   2.718   0.322 -1.5821 -0.3485  1.3162
  280SOL     OW  880   2.672   2.399   0.288  0.2158  0.3954 -0.3556
  280SOL    HW1  881   2.676   2.403   0.384 -0.7326  1.0422 -0.3226
  280SOL    HW2  882   2.585   2.433   0.267  0.3673  0.1351 -1.4443
  281SOL     OW  883   5.047   4.820   2.802 -0.3927 -0.4472 -0.0572
  281SOL    HW1  884   5.071   4.788   2.715  0.6450  1.9140 -0.7312
  281SOL    HW2  885   4.952   4.827   2.800 -0.2714  1.6940 -1.8900
  282SOL     OW  886   4.926   4.120   2.603  0.0423 -0.3485 -0.0272
  282SOL    HW1  887   4.884   4.057   2.662  2.3152 -2.1578 -0.2089
  282SOL    HW2  888   5.002   4.074   2.568  0.4998  1.7279 -2.0368
  283SOL     OW  889   5.830   5.292   2.729 -0.1891 -0.0115 -0.1383
  283SOL    HW1  890   5.844   5.202   2.700  1.8134  0.3656 -0.4840
  283SOL    HW2  891   5.815   5.342   2.649 -1.4823 -0.0434  0.0648
  284SOL     OW  892   5.349   4.887   2.658  0.2189 -0.0191 -0.3695
  284SOL    HW1  893   5.387   4.851   2.738 -0.9840  1.2517  0.8144
  284SOL    HW2  894   5.257   4.863   2.662  0.2789 -0.5805 -1.7685
  285SOL     OW  895   1.758   4.922   2.267  0.3495 -0.0057  1.0452
  285SOL    HW1  896   1.851   4.944   2.261  0.7760 -1.8528  0.1421
  285SOL    HW2  897   1.747   4.886   2.355  0.3743  0.6217  1.3116
  286SOL     OW  898   4.461   1.422   1.931  0.6596  0.8305 -0.7065
  286SOL    HW1  899   4.402   1.347   1.944  0.8433  0.8186  0.0796
  286SOL    HW2  900   4.408   1.498   1.957  1.1399  0.7733  0.4915
  287SOL     OW  901   6.137   5.291   2.890 -0.2698  0.4589  0.4486
  287SOL    HW1  902   6.224   5.285   2.849  0.6908 -1.2050  2.5417
  287SOL    HW2  903   6.076   5.287   2.816  1.4020  1.6952 -1.0841
  288SOL     OW  904   1.521   5.054   1.934 -0.2848 -0.2456 -0.0274
  288SOL    HW1  905   1.444   5.043   1.878 -1.6278  0.5779  1.5441
  288SOL    HW2  906   1.506   4.994   2.007 -0.3448  1.2008  1.1862
  289SOL     OW  907   5.026   4.524   2.188  0.8203  0.0749  0.0567
  289SOL    HW1  908   5.111   4.550   2.152  0.3448  1.5624 -0.0933
  289SOL    HW2  909   5.014   4.434   2.158  1.1469  0.7121 -2.2529
  290SOL     OW  910   3.082   3.653   0.148  0.1965 -1.0681 -0.0122
  290SOL    HW1  911   3.160   3.704   0.127  0.3453 -0.6512  1.4379
  290SOL    HW2  912   3.009   3.713   0.134  0.2507 -0.9755  0.0993
  291SOL     OW  913   3.512   3.843   0.131 -0.0290 -0.0278  0.0119
  291SOL    HW1  914   3.557   3.769   0.173 -0.3921 -0.8036 -0.9230
  291SOL    HW2  915   3.450   3.802   0.071  1.0401  1.0202 -1.9211
  292SOL     OW  916   5.726   5.384   2.953 -0.3384  0.2040 -0.5523
  292SOL    HW1  917   5.714   5.475   2.928  0.1683  0.3263 -0.3612
  292SOL    HW2  918   5.802   5.355   2.902  0.4395  0.3317  0.4973
  293SOL     OW  919   2.946   2.213   0.201 -0.2042 -0.2084 -0.1632
  293SOL    HW1  920   2.949   2.230   0.107  0.7640 -0.2076 -0.1399
  293SOL    HW2  921   3.015   2.269   0.238 -1.3011  0.6228  0.6838
  294SOL     OW  922   4.774   4.905   2.304 -0.6550  0.1688  0.0490
  294SOL    HW1  923   4.845   4.961   2.333  0.5035  0.3822 -2.9201
  294SOL    HW2  924   4.791   4.821   2.346  2.0405 -0.1053 -1.4107
  295SOL     OW  925   2.573   3.135   0.551  0.0544 -0.5554 -1.0067
  295SOL    HW1  926   2.644   3.168   0.606 -0.5567 -0.5733 -0.1796
  295SOL    HW2  927   2.616   3.102   0.473  1.1052 -1.8998  0.0919
  296SOL     OW  928   3.292   2.367   0.113  0.0538  0.3779 -0.1805
  296SOL    HW1  929   3.232   2.319   0.057 -0.4050  2.4853 -1.6094
  296SOL    HW2  930   3.240   2.390   0.190 -1.1397  2.4023 -1.5201
  297SOL     OW  931   1.573   3.791   0.108 -0.3413  0.0870 -0.1689
  297SOL    HW1  932   1.625   3.722   0.066  1.0374  0.0225  1.5439
  297SOL    HW2  933   1.544   3.846   0.036  0.5711 -0.9191 -1.3548
  298SOL     OW  934   4.865   5.468   2.494  0.7435  0.0954  0.1939
  298SOL    HW1  935   4.775   5.441   2.512  0.9895 -1.4167 -0.6601
  298SOL    HW2  936   4.877   5.549   2.543 -0.8830 -0.0213  0.8148
  299SOL     OW  937   4.781   4.862   2.788 -0.8389  0.7216  0.1205
  299SOL    HW1  938   4.805   4.946   2.748 -1.8574  0.6069 -0.7819
  299SOL    HW2  939   4.708   4.830   2.735 -1.6323  0.1024  1.5271
  300SOL     OW  940   6.009   5.749   2.616  0.2734  0.1288  0.1056
  300SOL    HW1  941   6.065   5.701   2.555 -0.4705  0.1192 -0.5800
  300SOL    HW2  942   6.038   5.720   2.702  1.6443  0.4766 -0.2102
  301SOL     OW  943   3.364   3.859   0.628 -0.3386  0.4262  0.9269
  301SOL    HW1  944   3.286   3.804   0.637  1.7119 -2.6749  1.5150
  301SOL    HW2  945   3.407   3.827   0.548  0.4116  1.9526  0.6880
  302SOL     OW  946   5.787   5.374   2.175  0.2861 -0.6478 -0.1274
  302SOL    HW1  947   5.866   5.418   2.145 -0.1020 -0.6441 -1.1922
  302SOL    HW2  948   5.818   5.298   2.224  0.9475 -0.4820 -0.2835
  303SOL     OW  949   4.766   6.179   2.686 -0.0614  0.1535  0.1236
  303SOL    HW1  950   4.797   6.123   2.757  0.4854  1.0562  0.6197
  303SOL    HW2  951   4.836   6.242   2.673 -0.6237  0.6720 -0.4775
  304SOL     OW  952   5.209   5.341   3.048 -0.0253 -0.5109  0.2119
  304SOL    HW1  953   5.234   5.432   3.032  1.2990 -0.7974  0.5971
  304SOL    HW2  954   5.287   5.290   3.027 -0.3195 -1.4497  1.2929
  305SOL     OW  955   5.473   5.126   2.541 -0.4974 -0.5104  0.6004
  305SOL    HW1  956   5.481   5.176   2.623 -1.8941 -0.3789  0.6902
  305SOL    HW2  957   5.430   5.045   2.567 -1.5053 -0.2131 -0.0785
  306SOL     OW  958   5.594   4.564   1.962 -0.7997  0.6578  0.1424
  306SOL    HW1  959   5.547   4.518   2.032  1.1696  0.7720  1.6422
  306SOL    HW2  960   5.580   4.657   1.980 -1.0110  0.6777 -0.1280
  307SOL     OW  961   2.421   2.489   0.286  0.3337 -0.1007 -0.1035
  307SOL    HW1  962   2.377   2.533   0.214  0.2322 -0.1627 -0.0792
  307SOL    HW2  963   2.364   2.502   0.362  0.2989 -0.2789 -0.0976
  308SOL     OW  964   4.448   5.944   2.747 -0.0718  0.5372  0.0272
  308SOL    HW1  965   4.368   5.908   2.785 -0.4664 -0.6649 -1.8253
  308SOL    HW2  966   4.418   6.016   2.691 -0.1764 -1.1148 -2.1990
  309SOL     OW  967   5.228   4.866   2.996  0.2826 -0.5558 -0.3300
  309SOL    HW1  968   5.162   4.867   2.927  1.1202  0.8330 -1.1566
  309SOL    HW2  969   5.296   4.808   2.963  0.5998 -0.0323 -0.6191
  310SOL     OW  970   4.562   4.544   2.751  0.6786 -0.3929 -0.1557
  310SOL    HW1  971   4.580   4.628   2.792  1.0743 -0.4920 -0.1256
  310SOL    HW2  972   4.573   4.479   2.821 -1.7159 -0.3241  0.4014
  311SOL     OW  973   5.525   4.830   2.017 -0.4988 -0.3684  0.0429
  311SOL    HW1  974   5.538   4.897   1.950  0.0085  0.3714  0.8506
  311SOL    HW2  975   5.547   4.874   2.099  0.7628 -1.7712  0.5127
  312SOL     OW  976   5.516   5.268   2.798  0.1094 -0.0159 -0.1212
  312SOL    HW1  977   5.601   5.299   2.829  0.3678 -1.4001  0.6350
  312SOL    HW2  978   5.486   5.207   2.865 -0.3532 -1.3920 -1.5064
  313SOL     OW  979   1.487   4.230   2.165 -0.3470  0.0353  0.6106
  313SOL    HW1  980   1.576   4.194   2.171 -0.5420 -0.3300  1.6279
  313SOL    HW2  981   1.431   4.160   2.199 -0.8852  0.7568  1.2567
  314SOL     OW  982   5.523   5.259   1.969 -0.6788 -0.3199 -0.3493
  314SOL    HW1  983   5.550   5.348   1.992  2.5931 -1.5617  1.3019
  314SOL    HW2  984   5.504   5.217   2.053 -1.8277 -1.3189 -1.0652
  315SOL     OW  985   5.776   5.415   2.498  0.2575 -0.7333  0.0609
  315SOL    HW1  986   5.796   5.503   2.467  0.5545  0.4374  3.2163
  315SOL    HW2  987   5.702   5.387   2.444 -0.6462  1.9541 -0.2473
  316SOL     OW  988   4.958   5.519   2.946 -0.7401 -0.2320  0.7537
  316SOL    HW1  989   4.874   5.494   2.909 -0.5782 -1.1901  0.9991
  316SOL    HW2  990   4.959   5.480   3.033  0.4519 -1.3285  0.2898
  317SOL     OW  991   4.830   5.032   3.019  0.0213 -0.3614 -0.0183
  317SOL    HW1  992   4.895   4.967   3.046  1.1812  0.8060  0.0873
  317SOL    HW2  993   4.832   5.029   2.923 -0.4675 -0.9868 -0.0146
  318SOL     OW  994   3.469   2.465   0.542  0.3566 -0.3098  0.0486
  318SOL    HW1  995   3.406   2.487   0.473 -0.2468 -1.7778  0.1002
  318SOL    HW2  996   3.512   2.548   0.563 -0.4019  0.4091 -1.1445
  319SOL     OW  997   4.335   5.357   1.841  0.0491 -0.3782 -0.2174
  319SOL    HW1  998   4.284   5.294   1.891  0.0299 -0.2511 -0.0757
  319SOL    HW2  999   4.331   5.438   1.892  0.1173 -0.2763 -0.3702
  320SOL     OW 1000   4.692   5.812   2.794  0.6881 -0.2560 -0.3402
  320SOL    HW1 1001   4.740   5.884   2.835  0.9664  0.0333 -1.1505
  320SOL    HW2 1002   4.601   5.841   2.794  0.5163 -0.7297  1.0449
  321SOL     OW 1003   4.993   5.846   2.445 -0.0568 -0.7075  0.4459
  321SOL    HW1 1004   5.084   5.817   2.434  0.0366  0.1403 -1.4055
  321SOL    HW2 1005   4.943   5.790   2.386 -0.3299  0.5611 -0.5878
  322SOL     OW 1006   5.694   5.089   3.012  0.0480 -0.0547  0.0232
  322SOL    HW1 1007   5.640   5.108   3.089 -0.0241  0.8027 -0.2300
  322SOL    HW2 1008   5.730   5.174   2.986  0.3789 -0.3966 -0.6613
  323SOL     OW 1009   4.565   5.099   3.023  0.1455  0.1283  0.4994
  323SOL    HW1 1010   4.660   5.096   3.011  0.0527 -1.0611  0.0111
  323SOL    HW2 1011   4.554   5.116   3.116  0.8262  3.2991  0.1350
  324SOL     OW 1012   4.991   5.030   2.094  0.0394 -0.9027 -0.0786
  324SOL    HW1 1013   5.086   5.044   2.098 -0.0590 -0.4120  1.4807
  324SOL    HW2 1014   4.977   4.944   2.132 -0.0893 -1.2950 -1.0028
  325SOL     OW 1015   5.923   4.775   2.770  0.5214 -0.5509  0.2063
  325SOL    HW1 1016   5.851   4.826   2.808  0.5469  0.5452 -1.1141
  325SOL    HW2 1017   5.984   4.763   2.842 -0.1566  0.0887  0.9109
  326SOL     OW 1018   2.924   2.705   0.162 -0.0013 -0.0765 -0.4225
  326SOL    HW1 1019   2.981   2.699   0.085  0.7466 -0.4173  0.1412
  326SOL    HW2 1020   2.977   2.749   0.228  0.1461 -1.6641  0.5686
  327SOL     OW 1021   5.439   1.927   2.594 -0.5651 -0.4104 -0.1824
  327SOL    HW1 1022   5.531   1.954   2.597 -0.7711  0.7649 -2.2978
  327SOL    HW2 1023   5.442   1.832   2.605  0.7287 -0.2222  1.4402
  328SOL     OW 1024   4.613   4.841   2.583  0.1776 -0.1499  0.4622
  328SOL    HW1 1025   4.642   4.764   2.534 -1.7019 -0.8227  0.3081
  328SOL    HW2 1026   4.533   4.870   2.539  0.1970  1.1773  1.2317
  329SOL     OW 1027   4.686   5.535   2.871 -0.0279  0.4631 -0.1867
  329SOL    HW1 1028   4.672   5.628   2.855  0.8432  0.4243 -1.3299
  329SOL    HW2 1029   4.601   5.494   2.856 -0.3839  1.0483  0.1945
  330SOL     OW 1030   5.754   5.635   2.807 -0.3835  0.4431 -0.0561
  330SOL    HW1 1031   5.689   5.665   2.743  0.2020  1.7343 -0.0858
  330SOL    HW2 1032   5.838   5.645   2.763 -0.0166  0.7928  0.6905
  331SOL     OW 1033   1.503   5.317   1.864 -0.4365  0.8607  0.3520
  331SOL    HW1 1034   1.446   5.333   1.940 -0.7276  0.6832  0.1745
  331SOL    HW2 1035   1.541   5.231   1.881 -1.8007  0.0589 -0.4952
  332SOL     OW 1036   5.930   5.989   2.921  0.0336  0.2343  0.6411
  332SOL    HW1 1037   5.982   6.043   2.980  0.9257  0.5898 -0.4258
  332SOL    HW2 1038   5.966   6.009   2.834  1.0422 -2.7584  0.2791
  333SOL     OW 1039   5.934   6.364   2.984 -0.1669  0.2629 -0.3571
  333SOL    HW1 1040   5.883   6.445   2.977  0.2148  0.3768 -2.9997
  333SOL    HW2 1041   5.881   6.307   3.040 -1.3875  1.6664 -0.0183
  334SOL     OW 1042   4.205   5.743   2.548 -0.2832 -0.1621 -0.1390
  334SOL    HW1 1043   4.276   5.788   2.501 -1.6847  0.2321 -1.9983
  334SOL    HW2 1044   4.174   5.807   2.611 -0.3782  0.4448 -0.7908
  335SOL     OW 1045   1.831   4.243   2.492  0.9227 -0.0788 -0.0558
  335SOL    HW1 1046   1.923   4.240   2.465  1.1491 -1.4137  0.7738
  335SOL    HW2 1047   1.834   4.243   2.587  0.0569 -0.4252 -0.0185
  336SOL     OW 1048   5.725   5.857   2.483  0.1521  0.1151  0.5681
  336SOL    HW1 1049   5.671   5.806   2.543  0.3171  0.6599  1.2012
  336SOL    HW2 1050   5.787   5.794   2.447 -0.1574 -0.2854  0.7341
  337SOL     OW 1051   5.637   4.997   2.236 -0.3498 -0.1725 -0.2845
  337SOL    HW1 1052   5.575   5.044   2.291 -0.1637  0.8641 -0.9448
  337SOL    HW2 1053   5.720   5.044   2.246 -0.3530  0.1506 -1.5782
  338SOL     OW 1054   2.985   3.427   0.282 -0.0021 -0.5835 -0.2687
  338SOL    HW1 1055   3.061   3.377   0.313 -0.0015  0.0520  0.8238
  338SOL    HW2 1056   3.021   3.513   0.260 -0.4040 -0.2585  0.3083
  339SOL     OW 1057   4.915   5.655   2.265  0.1130 -0.2137  0.0162
  339SOL    HW1 1058   4.822   5.678   2.276  0.4850  0.7052  1.4453
  339SOL    HW2 1059   4.924   5.571   2.310  0.0005 -0.2708 -0.0649
  340SOL     OW 1060   4.007   3.712   0.139  0.0199 -0.3717 -0.3910
  340SOL    HW1 1061   3.918   3.722   0.106 -0.0352 -1.1825 -0.5150
  340SOL    HW2 1062   4.052   3.792   0.114  0.1280 -1.1545 -2.9615
  341SOL     OW 1063   6.024   4.577   2.594 -0.6210  0.8362  0.0457
  341SOL    HW1 1064   6.086   4.547   2.660 -0.8781 -0.2242 -0.1706
  341SOL    HW2 1065   5.977   4.649   2.635 -0.2531  0.6876  0.7347
  342SOL     OW 1066   4.593   4.723   2.945  0.0968  0.0063 -0.4046
  342SOL    HW1 1067   4.668   4.781   2.933  0.8265 -0.6333  0.8335
  342SOL    HW2 1068   4.552   4.754   3.026  0.1073 -0.7834 -0.0909
  343SOL     OW 1069   1.331   1.470   1.596  0.1409  0.1073  0.9357
  343SOL    HW1 1070   1.283   1.398   1.638 -0.3835 -0.8750 -1.2020
  343SOL    HW2 1071   1.266   1.512   1.539  1.0980  0.6232  0.1975
  344SOL     OW 1072   3.338   3.481   0.194 -0.0960 -0.1211 -0.1331
  344SOL    HW1 1073   3.344   3.502   0.100 -0.3519  0.5407 -0.0080
  344SOL    HW2 1074   3.340   3.566   0.237 -1.9698 -0.2735  0.3588
  345SOL     OW 1075   5.282   5.063   2.141  0.0622 -0.5773 -0.5994
  345SOL    HW1 1076   5.342   5.120   2.188 -3.6083  2.5769  0.7815
  345SOL    HW2 1077   5.245   5.005   2.208 -1.6897  0.6637 -0.4300
  346SOL     OW 1078   1.562   1.855   2.007 -0.5903  0.5222 -0.1287
  346SOL    HW1 1079   1.619   1.793   2.053 -0.6677  0.4310 -0.1555
  346SOL    HW2 1080   1.503   1.800   1.957 -0.5667  0.6196 -0.2649
  347SOL     OW 1081   2.336   3.596   0.108 -0.0725  0.0582 -0.2551
  347SOL    HW1 1082   2.383   3.679   0.104 -0.5809  0.3609 -0.0342
  347SOL    HW2 1083   2.395   3.538   0.157  1.1912 -0.3344 -2.1471
  348SOL     OW 1084   3.490   3.381   0.475  0.2417  0.3230 -0.2376
  348SOL    HW1 1085   3.553   3.339   0.534  0.2811  1.8582  0.8902
  348SOL    HW2 1086   3.533   3.381   0.390  0.1689 -1.9811 -0.3248
  349SOL     OW 1087   5.271   5.428   2.579 -0.2209 -0.2017 -0.3711
  349SOL    HW1 1088   5.291   5.336   2.567  0.7201  0.1826 -2.0574
  349SOL    HW2 1089   5.336   5.459   2.642 -0.0658 -0.5150 -0.3755
  350SOL     OW 1090   5.401   4.503   2.690  0.3134 -0.0911  0.3197
  350SOL    HW1 1091   5.362   4.418   2.713 -0.0771 -0.1469 -0.5075
  350SOL    HW2 1092   5.485   4.481   2.652  1.1459  0.0236  1.9845
  351SOL     OW 1093   4.667   5.793   2.226  0.4245  0.6272 -0.0227
  351SOL    HW1 1094   4.589   5.737   2.234 -0.4400  1.9508  1.2732
  351SOL    HW2 1095   4.687   5.791   2.132 -2.6199  2.0413 -0.8543
  352SOL     OW 1096   3.836   2.341   0.218 -0.9982 -0.0251  0.4107
  352SOL    HW1 1097   3.773   2.390   0.271 -2.6670 -1.1692 -0.4636
  352SOL    HW2 1098   3.803   2.347   0.129 -1.3258 -2.7353  0.2692
  353SOL     OW 1099   4.290   5.610   2.277 -0.3381 -0.0365  0.2217
  353SOL    HW1 1100   4.310   5.689   2.328 -0.0979 -0.9006  1.5287
  353SOL    HW2 1101   4.207   5.580   2.313 -0.8226  0.0358 -0.8135
  354SOL     OW 1102   2.699   2.840   0.374  0.1210  0.1007  0.6616
  354SOL    HW1 1103   2.769   2.777   0.355  0.7306  0.8629  0.3390
  354SOL    HW2 1104   2.740   2.926   0.363 -1.3051  0.6043 -1.3937
  355SOL     OW 1105   4.293   4.273   1.862  0.5140 -0.5197  0.3471
  355SOL    HW1 1106   4.260   4.360   1.883  0.4971 -0.1125 -1.1818
  355SOL    HW2 1107   4.350   4.287   1.786  0.0799 -1.8986 -0.2734
  356SOL     OW 1108   3.525   3.256   0.185 -0.2271 -0.0140 -0.0447
  356SOL    HW1 1109   3.457   3.324   0.189 -3.0685 -2.5372 -1.4289
  356SOL    HW2 1110   3.535   3.238   0.091  0.1373 -1.7359  0.2911
  357SOL     OW 1111   5.114   4.743   2.546 -0.3278 -0.5709  0.0135
  357SOL    HW1 1112   5.157   4.659   2.559  0.8362 -0.6536 -3.3958
  357SOL    HW2 1113   5.032   4.722   2.502 -0.9086  0.0274  0.7562
  358SOL     OW 1114   5.576   5.480   2.299  0.3480 -0.5202  0.2661
  358SOL    HW1 1115   5.647   5.440   2.248  0.3009 -0.5985  0.2613
  358SOL    HW2 1116   5.581   5.573   2.278  0.4994 -0.5137  0.3254
  359SOL     OW 1117   2.809   3.167   0.689 -0.1341  0.3257  0.3472
  359SOL    HW1 1118   2.848   3.220   0.758 -0.9624  0.9092  0.3855
  359SOL    HW2 1119   2.879   3.155   0.625  0.1063  1.3640  0.4040
  360SOL     OW 1120   5.914   2.107   2.447 -0.0230  0.2163 -0.3704
  360SOL    HW1 1121   6.009   2.104   2.451  0.0742  2.4115  1.0967
  360SOL    HW2 1122   5.894   2.110   2.353  1.4402  0.9532 -0.6919
  361SOL     OW 1123   6.097   4.734   2.975 -0.1277 -0.1241  0.1828
  361SOL    HW1 1124   6.183   4.698   2.996 -0.8227 -0.5049  2.6876
  361SOL    HW2 1125   6.107   4.829   2.986  0.2893 -0.0330 -0.8840
  362SOL     OW 1126   5.758   4.455   2.325  0.0364 -0.1508  0.3155
  362SOL    HW1 1127   5.787   4.535   2.282  2.3862  0.2220  2.3848
  362SOL    HW2 1128   5.781   4.385   2.265  2.6611  0.4034  0.5818
  363SOL     OW 1129   4.856   5.101   2.667  0.3792  0.3294  0.6470
  363SOL    HW1 1130   4.934   5.145   2.700  1.6666 -0.9315 -0.5975
  363SOL    HW2 1131   4.872   5.090   2.573  0.0296 -2.5110  0.8280
  364SOL     OW 1132   3.709   2.796   0.141 -0.6110 -0.1023  0.2412
  364SOL    HW1 1133   3.697   2.867   0.078  0.7050  0.5165  0.6573
  364SOL    HW2 1134   3.786   2.821   0.192 -1.9943 -0.2593  2.5624
  365SOL     OW 1135   4.962   5.317   2.115 -0.0298  0.2827  0.3145
  365SOL    HW1 1136   4.941   5.226   2.135 -2.6751  0.7634  0.0662
  365SOL    HW2 1137   5.022   5.343   2.184 -0.4755 -1.1943  1.3106
  366SOL     OW 1138   5.197   2.033   2.802  0.2602 -0.2267  0.2346
  366SOL    HW1 1139   5.286   2.011   2.774  0.4824  1.3524 -0.4218
  366SOL    HW2 1140   5.203   2.124   2.833 -0.8321 -0.5840  1.6025
  367SOL     OW 1141   5.411   5.515   2.789 -0.2764  0.0510  0.1528
  367SOL    HW1 1142   5.440   5.424   2.796 -0.1720  0.1508  1.1005
  367SOL    HW2 1143   5.366   5.533   2.872  0.4515  1.1221  0.3287
  368SOL     OW 1144   1.153   5.398   1.526 -0.6268 -0.2160 -0.3174
  368SOL    HW1 1145   1.087   5.360   1.584 -0.3894 -3.3061 -1.8598
  368SOL    HW2 1146   1.102   5.437   1.454 -0.8183 -0.3924 -0.2777
  369SOL     OW 1147   5.966   6.049   2.617  0.7730  0.4918  0.0772
  369SOL    HW1 1148   5.950   6.093   2.534  0.5795  0.8253  0.2914
  369SOL    HW2 1149   5.948   5.956   2.599  0.6485  0.5767 -0.2292
  370SOL     OW 1150   4.884   5.696   2.636  0.5659  0.4981  0.1702
  370SOL    HW1 1151   4.813   5.728   2.692 -0.9277 -2.1066 -0.0711
  370SOL    HW2 1152   4.908   5.772   2.583 -1.4185  1.7319  0.9138
  371SOL     OW 1153   5.894   4.493   2.982  0.2360 -0.0419 -0.0599
  371SOL    HW1 1154   5.836   4.473   2.908 -0.4572 -1.3742  0.7878
  371SOL    HW2 1155   5.960   4.552   2.946 -0.8566  0.4248 -1.4004
  372SOL     OW 1156   4.765   4.509   3.036 -0.2946  0.1524 -0.1706
  372SOL    HW1 1157   4.838   4.564   3.064 -0.7225 -0.0070  1.3567
  372SOL    HW2 1158   4.707   4.568   2.989  0.0184  0.6452  0.0509
  373SOL     OW 1159   3.868   3.394   0.022  0.3015 -0.2470 -0.0722
  373SOL    HW1 1160   3.779   3.424   0.039  0.7956  1.0931  0.2913
  373SOL    HW2 1161   3.885   3.327   0.090 -0.8486 -1.4663 -0.9473
  374SOL     OW 1162   2.801   3.123   0.070 -0.2245  0.0294  0.4838
  374SOL    HW1 1163   2.890   3.135   0.039  0.4423 -0.3101  2.1829
  374SOL    HW2 1164   2.772   3.041   0.030 -0.1552  0.6292 -0.8480
  375SOL     OW 1165   5.105   5.663   2.050 -0.2840  0.1158 -0.3794
  375SOL    HW1 1166   5.061   5.747   2.037 -0.1213  0.1266 -0.8981
  375SOL    HW2 1167   5.061   5.625   2.126 -0.8352  0.3605 -0.5640
  376SOL     OW 1168   5.662   4.698   3.058 -0.6498 -0.6850  0.6877
  376SOL    HW1 1169   5.607   4.627   3.092  0.5274 -0.7445  2.5930
  376SOL    HW2 1170   5.751   4.662   3.059 -0.1966  0.3956  0.4715
  377SOL     OW 1171   5.345   4.330   3.027 -0.3456  0.3487 -0.0778
  377SOL    HW1 1172   5.259   4.369   3.012 -0.0435  0.6322 -1.2606
  377SOL    HW2 1173   5.365   4.286   2.944  0.7681  0.5548  0.0666
  378SOL     OW 1174   5.067   5.341   2.389 -0.0990 -0.3832 -0.0956
  378SOL    HW1 1175   4.992   5.384   2.430 -0.4176 -0.3667 -0.6865
  378SOL    HW2 1176   5.143   5.369   2.441 -0.5631 -0.8430  0.8487
  379SOL     OW 1177   4.837   6.308   3.038 -0.4829  0.3931 -0.4275
  379SOL    HW1 1178   4.756   6.318   2.987 -0.4973 -1.6696 -0.8928
  379SOL    HW2 1179   4.842   6.214   3.057  0.3936  0.8776  1.9966
  380SOL     OW 1180   1.274   4.153   1.681 -0.0123  0.3879 -0.6035
  380SOL    HW1 1181   1.216   4.151   1.757  0.6357  0.5441 -0.1088
  380SOL    HW2 1182   1.362   4.146   1.716  0.3411  1.1870 -1.2890
  381SOL     OW 1183   5.359   4.773   2.392 -0.0959  0.0191 -0.7483
  381SOL    HW1 1184   5.451   4.747   2.400  0.7028  1.8009 -3.0150
  381SOL    HW2 1185   5.340   4.820   2.473  1.3503  0.5526 -0.6899
  382SOL     OW 1186   5.696   4.885   2.846 -0.1530  0.0950  0.2277
  382SOL    HW1 1187   5.682   4.972   2.884 -1.9675 -0.2447  0.4510
  382SOL    HW2 1188   5.690   4.825   2.920 -0.8470 -0.3575 -0.1849
  383SOL     OW 1189   4.536   5.525   2.250  0.0312  0.1733  0.3537
  383SOL    HW1 1190   4.445   5.552   2.262 -0.4424 -0.6343 -1.2155
  383SOL    HW2 1191   4.566   5.506   2.339 -0.7482  2.1476  1.1126
  384SOL     OW 1192   5.425   1.709   2.088 -0.5887 -0.2043 -0.4750
  384SOL    HW1 1193   5.376   1.780   2.129 -1.1958 -0.3168 -0.9938
  384SOL    HW2 1194   5.498   1.693   2.148 -0.7565  0.4757 -0.0714
  385SOL     OW 1195   2.510   4.694   3.032 -0.2066  0.0213  0.2620
  385SOL    HW1 1196   2.462   4.738   2.962  0.7519  1.0183  0.2086
  385SOL    HW2 1197   2.452   4.701   3.108 -2.2354 -2.9510 -0.8302
  386SOL     OW 1198   4.893   1.906   1.217 -0.0195  0.1492  0.2219
  386SOL    HW1 1199   4.922   1.846   1.149  2.3157 -0.4651  1.6549
  386SOL    HW2 1200   4.799   1.887   1.227  0.0368 -1.1627 -1.3768
  387SOL     OW 1201   3.988   2.038   0.867  0.1298 -0.0695 -0.3217
  387SOL    HW1 1202   4.053   2.106   0.848 -0.5057  0.3243 -1.1578
  387SOL    HW2 1203   3.956   2.060   0.954 -0.2876  0.8986 -0.7028
  388SOL     OW 1204   4.550   2.819   0.893  0.5122 -0.3198  0.4555
  388SOL    HW1 1205   4.539   2.912   0.912  0.9632 -0.3107  0.6920
  388SOL    HW2 1206   4.505   2.774   0.965 -2.6731 -0.3233 -1.3995
  389SOL     OW 1207   1.064   3.323   0.784 -0.4297 -0.4425  0.2509
  389SOL    HW1 1208   1.123   3.366   0.847 -1.7603 -0.8648  1.8561
  389SOL    HW2 1209   1.110   3.243   0.759  0.3291 -0.0343  0.3074
  390SOL     OW 1210   0.978   2.606   0.743 -0.5756  0.3845  0.1554
  390SOL    HW1 1211   0.919   2.681   0.741  0.0771  0.9035 -0.5204
  390SOL    HW2 1212   0.936   2.543   0.801 -0.1335  2.0915  2.4750
  391SOL     OW 1213   1.222   2.679   0.379 -0.2540  0.1755 -0.1506
  391SOL    HW1 1214   1.298   2.672   0.436 -0.3705  1.2282  0.1538
  391SOL    HW2 1215   1.214   2.593   0.338 -0.2961 -0.6615  1.5593
  392SOL     OW 1216   4.851   3.111   0.712 -0.1077 -0.3462 -0.0421
  392SOL    HW1 1217   4.882   3.023   0.689 -0.3185 -0.0320 -1.6463
  392SOL    HW2 1218   4.793   3.097   0.787  1.2447 -1.3520  0.8745
  393SOL     OW 1219   5.236   2.604   1.895  0.3310 -0.2034 -0.0310
  393SOL    HW1 1220   5.262   2.587   1.805  0.4725  0.4647 -0.1236
  393SOL    HW2 1221   5.193   2.523   1.924  1.1974 -0.7917 -0.3530
  394SOL     OW 1222   0.743   2.809   0.726  0.1095 -0.0096 -0.0296
  394SOL    HW1 1223   0.764   2.869   0.655  0.1354  1.8804  1.4737
  394SOL    HW2 1224   0.656   2.837   0.756 -0.5527 -1.7198 -0.2211
  395SOL     OW 1225   5.309   3.335   1.455 -0.5504  0.1441  0.1738
  395SOL    HW1 1226   5.331   3.404   1.516  0.9741 -0.3941  0.2785
  395SOL    HW2 1227   5.360   3.355   1.376 -1.2032 -0.0824 -0.3205
  396SOL     OW 1228   4.437   3.057   0.997  0.4008  0.0692 -0.3631
  396SOL    HW1 1229   4.361   3.072   0.940  1.2803  1.0265 -1.3132
  396SOL    HW2 1230   4.399   3.051   1.085 -0.8702 -0.3733 -0.9154
  397SOL     OW 1231   1.807   4.113   2.139 -0.3720 -0.1915  0.1682
  397SOL    HW1 1232   1.848   4.196   2.115 -0.3291 -0.5857 -1.2402
  397SOL    HW2 1233   1.873   4.069   2.193  0.7165 -0.3932 -1.2425
  398SOL     OW 1234   4.640   2.630   1.655  0.1334 -0.0004 -0.4989
  398SOL    HW1 1235   4.547   2.620   1.634 -0.2548  0.5353  0.8394
  398SOL    HW2 1236   4.660   2.554   1.711  0.2690  0.3513 -0.0666
  399SOL     OW 1237   1.349   2.304   0.384  0.0720 -0.1914  0.0467
  399SOL    HW1 1238   1.407   2.232   0.410  0.3284 -0.3805 -0.9977
  399SOL    HW2 1239   1.331   2.351   0.465  0.1063 -1.2850  0.7041
  400SOL     OW 1240   4.276   3.700   0.701  0.1310  0.0576 -0.4890
  400SOL    HW1 1241   4.363   3.733   0.725 -0.3056  0.7482  0.1436
  400SOL    HW2 1242   4.229   3.776   0.668 -0.3935 -0.2264 -0.4119
  401SOL     OW 1243   1.626   3.402   1.540  1.1921 -0.0163  0.5522
  401SOL    HW1 1244   1.630   3.428   1.633  0.6426  0.5683  0.4228
  401SOL    HW2 1245   1.551   3.450   1.506 -0.1094 -2.0911  0.3697
  402SOL     OW 1246   4.105   3.476   0.706  0.7519 -0.1060 -0.3980
  402SOL    HW1 1247   4.156   3.556   0.718 -1.7671  1.6016 -0.2781
  402SOL    HW2 1248   4.105   3.434   0.792 -0.0444  1.1935  0.2750
  403SOL     OW 1249   4.387   2.696   1.091 -0.6902  0.3605 -0.0586
  403SOL    HW1 1250   4.385   2.601   1.079  0.3842  0.4931 -1.5453
  403SOL    HW2 1251   4.392   2.707   1.186  0.3502 -1.1181  0.1065
  404SOL     OW 1252   5.054   3.691   1.393 -0.6925 -0.3906  0.4371
  404SOL    HW1 1253   5.091   3.644   1.468 -1.2710 -0.0028  0.9714
  404SOL    HW2 1254   5.072   3.634   1.319  3.0026  0.7678  0.2655
  405SOL     OW 1255   0.396   3.081   0.327 -0.3220  0.1379 -0.4374
  405SOL    HW1 1256   0.330   3.014   0.310  0.0382 -0.2644 -0.2719
  405SOL    HW2 1257   0.352   3.146   0.382 -0.7846  0.2323 -0.9070
  406SOL     OW 1258   1.613   1.870   1.234 -0.3391  0.4859 -0.4709
  406SOL    HW1 1259   1.571   1.943   1.188 -1.7038 -0.5554 -0.9655
  406SOL    HW2 1260   1.645   1.908   1.316  0.3678  1.9533 -1.3849
  407SOL     OW 1261   4.625   2.634   0.321  0.7615 -0.5889 -0.3842
  407SOL    HW1 1262   4.577   2.683   0.388  0.7556  0.8431 -1.3893
  407SOL    HW2 1263   4.716   2.658   0.335  0.8508 -0.9408 -0.3650
  408SOL     OW 1264   4.174   5.887   2.799 -0.3291 -0.5863 -0.2627
  408SOL    HW1 1265   4.167   5.798   2.832  0.9515 -0.3931  0.5929
  408SOL    HW2 1266   4.086   5.923   2.806 -0.6291 -1.4387  0.4017
  409SOL     OW 1267   2.283   5.788   3.000  0.3190  0.2486  0.2723
  409SOL    HW1 1268   2.197   5.777   3.041 -1.6782  1.0167 -3.2501
  409SOL    HW2 1269   2.313   5.698   2.985  0.5206 -0.0325  2.1727
  410SOL     OW 1270   1.585   2.980   0.375  0.1246 -0.7522  0.0145
  410SOL    HW1 1271   1.679   2.993   0.393 -0.1747  0.2852  0.9529
  410SOL    HW2 1272   1.583   2.911   0.309  1.5973 -0.1684 -0.6945
  411SOL     OW 1273   1.617   3.366   0.691 -0.2233  0.6031 -0.8452
  411SOL    HW1 1274   1.593   3.279   0.721  2.8227 -0.6469 -1.6212
  411SOL    HW2 1275   1.596   3.366   0.597 -1.0630  1.0638 -0.6642
  412SOL     OW 1276   4.536   2.832   1.987 -0.1842  0.9653  0.5168
  412SOL    HW1 1277   4.536   2.916   2.034  0.7260  0.6387  1.1132
  412SOL    HW2 1278   4.547   2.857   1.895 -2.0962  1.6110  0.4195
  413SOL     OW 1279   4.726   3.537   0.526  0.2815  0.0822 -0.2095
  413SOL    HW1 1280   4.751   3.444   0.524  0.6353  0.1568  0.3567
  413SOL    HW2 1281   4.635   3.537   0.555  0.3630 -0.0768  0.0515
  414SOL     OW 1282   1.266   3.484   1.341  0.0492 -0.3847  0.0578
  414SOL    HW1 1283   1.256   3.408   1.285  1.5357 -0.7259  0.2287
  414SOL    HW2 1284   1.177   3.504   1.370 -0.3631 -2.0550  0.0292
  415SOL     OW 1285   0.956   1.584   0.555 -0.2859  0.0196  0.3216
  415SOL    HW1 1286   0.936   1.653   0.493  0.6491 -0.2710 -0.3352
  415SOL    HW2 1287   0.968   1.506   0.501  0.7654 -0.1911  0.8245
  416SOL     OW 1288   4.842   2.940   1.415  0.3174 -0.1374  0.4297
  416SOL    HW1 1289   4.753   2.951   1.383  0.2735  0.7969  0.8458
  416SOL    HW2 1290   4.835   2.875   1.485 -0.0066 -0.1473  0.3875
  417SOL     OW 1291   1.271   2.844   0.163 -0.4667 -0.3487  0.1651
  417SOL    HW1 1292   1.219   2.808   0.092 -0.1507  1.3357 -0.9781
  417SOL    HW2 1293   1.259   2.782   0.236 -3.7864 -0.1859 -0.1199
  418SOL     OW 1294   1.604   3.738   1.900 -0.1391 -0.4396  0.1320
  418SOL    HW1 1295   1.596   3.822   1.855 -0.2672 -0.2769  0.4562
  418SOL    HW2 1296   1.648   3.759   1.983 -1.2589 -0.5054  0.7567
  419SOL     OW 1297   5.073   2.667   1.502  0.0416  0.0334 -0.3216
  419SOL    HW1 1298   5.052   2.592   1.446  1.1427 -0.0085 -0.7032
  419SOL    HW2 1299   5.001   2.672   1.564 -0.7250 -0.5079 -1.1498
  420SOL     OW 1300   1.248   3.452   0.948 -0.4152 -0.3840  0.0622
  420SOL    HW1 1301   1.290   3.367   0.964 -0.3603 -0.7865 -2.0531
  420SOL    HW2 1302   1.321   3.514   0.942 -0.1819 -0.7971 -1.8647
  421SOL     OW 1303   1.359   3.754   0.622 -0.1554 -0.1861  0.4716
  421SOL    HW1 1304   1.267   3.754   0.651 -1.0369 -0.1687 -2.0957
  421SOL    HW2 1305   1.377   3.663   0.601 -0.1591  0.0654 -0.6553
  422SOL     OW 1306   0.717   2.388   0.451 -0.2082  0.4037  0.0645
  422SOL    HW1 1307   0.628   2.396   0.419 -0.4764 -2.9108 -0.3433
  422SOL    HW2 1308   0.764   2.343   0.381  1.2369  0.1598  1.1370
  423SOL     OW 1309   1.049   2.652   1.052  0.4448 -0.4385  0.0827
  423SOL    HW1 1310   1.006   2.615   1.129  1.2072 -1.6809 -0.0729
  423SOL    HW2 1311   1.006   2.610   0.977 -0.2381  0.7017 -0.2034
  424SOL     OW 1312   1.721   3.333   0.220  0.3647 -0.0486  0.1054
  424SOL    HW1 1313   1.787   3.274   0.183 -0.5071 -0.4284 -0.8981
  424SOL    HW2 1314   1.712   3.402   0.155 -0.8812 -0.4932 -0.2215
  425SOL     OW 1315   4.905   2.965   1.133 -0.6590 -0.0229 -0.0212
  425SOL    HW1 1316   4.872   2.945   1.220  1.5019  0.2586  0.9560
  425SOL    HW2 1317   4.855   3.042   1.105 -1.1544  0.0957  1.1442
  426SOL     OW 1318   1.519   2.476   1.570 -0.7938 -0.0891 -0.1531
  426SOL    HW1 1319   1.561   2.408   1.517 -1.0963 -0.3166 -0.0987
  426SOL    HW2 1320   1.550   2.559   1.532 -1.7952 -0.2279 -1.3291
  427SOL     OW 1321   5.299   3.144   1.622 -0.9122  0.4845 -0.1293
  427SOL    HW1 1322   5.326   3.076   1.560  0.7982  0.2096  0.8654
  427SOL    HW2 1323   5.322   3.226   1.578  0.9953  0.2707  0.4017
  428SOL     OW 1324   0.914   2.556   1.273  0.2028  0.6503 -0.0385
  428SOL    HW1 1325   0.927   2.570   1.367 -0.4276  0.7465  0.0380
  428SOL    HW2 1326   0.825   2.521   1.266  0.5829 -0.2566 -0.5139
  429SOL     OW 1327   1.346   2.524   0.179 -0.4097 -0.1401  0.0356
  429SOL    HW1 1328   1.429   2.557   0.144  0.6889 -1.1387  1.5887
  429SOL    HW2 1329   1.371   2.449   0.233 -2.2576 -0.0722  1.0419
  430SOL     OW 1330   4.654   2.486   0.674 -0.5142 -0.3968  0.0142
  430SOL    HW1 1331   4.743   2.511   0.699 -0.4658 -1.0015  0.4644
  430SOL    HW2 1332   4.615   2.453   0.754 -0.9757 -0.6269 -0.3020
  431SOL     OW 1333   4.372   3.410   1.767 -0.0861  0.6767 -0.8557
  431SOL    HW1 1334   4.339   3.337   1.714  0.9271 -0.1518 -0.3878
  431SOL    HW2 1335   4.409   3.471   1.703  1.0036 -0.2535 -1.1401
  432SOL     OW 1336   1.072   2.290   0.048 -0.0914 -0.0907  0.0061
  432SOL    HW1 1337   1.042   2.337  -0.031  0.5515 -0.7274 -0.6313
  432SOL    HW2 1338   0.992   2.272   0.096 -0.3594  1.7649  0.3418
  433SOL     OW 1339   2.009   2.434   1.682 -0.3350  0.1366 -0.1323
  433SOL    HW1 1340   2.048   2.520   1.668  1.1943 -0.3676  0.8019
  433SOL    HW2 1341   1.942   2.427   1.613 -1.2571  2.4761  0.3980
  434SOL     OW 1342   1.011   2.858   0.513  0.1825  0.1253 -0.1120
  434SOL    HW1 1343   1.081   2.797   0.487  1.1006  1.4119 -0.7303
  434SOL    HW2 1344   0.930   2.812   0.489  0.7659 -1.4889  0.8206
  435SOL     OW 1345   4.838   2.330   0.929 -0.1924 -0.4479  0.1605
  435SOL    HW1 1346   4.747   2.359   0.927 -0.9337 -2.5791  0.6659
  435SOL    HW2 1347   4.885   2.395   0.876 -1.6430  1.7722  1.4132
  436SOL     OW 1348   0.638   3.661   0.383  0.1759  0.3979 -0.7179
  436SOL    HW1 1349   0.629   3.744   0.336  2.6188  1.8577  1.1661
  436SOL    HW2 1350   0.551   3.645   0.420 -0.1474  2.5920 -0.4007
  437SOL     OW 1351   4.669   3.394   0.798  0.5405  0.3628  0.2606
  437SOL    HW1 1352   4.751   3.371   0.755  1.0650 -0.0053  1.4270
  437SOL    HW2 1353   4.695   3.428   0.884 -0.4866  1.0071  0.3411
  438SOL     OW 1354   1.693   2.903   0.786 -0.2619 -0.0804 -0.0886
  438SOL    HW1 1355   1.669   2.953   0.708  2.4325  1.8986  0.2222
  438SOL    HW2 1356   1.612   2.898   0.837 -2.0882 -1.3825 -2.9036
  439SOL     OW 1357   1.503   3.554   1.164  0.3984  0.1907  0.0754
  439SOL    HW1 1358   1.440   3.529   1.232  1.4104 -0.6117  0.7542
  439SOL    HW2 1359   1.568   3.483   1.165  0.6002  0.3364 -1.5182
  440SOL     OW 1360   4.548   2.739   0.622 -0.6704 -0.0566  0.2337
  440SOL    HW1 1361   4.582   2.649   0.627 -0.7054 -0.0913 -0.1273
  440SOL    HW2 1362   4.570   2.777   0.707 -0.3257 -0.2912  0.2558
  441SOL     OW 1363   1.437   2.799   0.914  0.1339  0.3652 -0.0224
  441SOL    HW1 1364   1.379   2.811   0.838 -1.0610 -0.8767  0.6430
  441SOL    HW2 1365   1.379   2.805   0.989  1.2633  1.2919  0.7946
  442SOL     OW 1366   4.593   3.387   1.935 -0.5646  0.4504 -0.4322
  442SOL    HW1 1367   4.641   3.342   1.865 -0.4426 -0.2752  0.1094
  442SOL    HW2 1368   4.501   3.382   1.907 -0.9051 -2.4964  0.8209
  443SOL     OW 1369   3.316   6.091   3.023 -0.7668  0.2591  0.1408
  443SOL    HW1 1370   3.288   6.082   3.114  1.5213 -0.1608  0.8976
  443SOL    HW2 1371   3.259   6.032   2.974 -1.0548 -0.7085  1.5619
  444SOL     OW 1372   4.727   2.481   1.416  0.2337 -0.4497 -0.9541
  444SOL    HW1 1373   4.715   2.537   1.493 -0.2868 -0.4076 -1.0598
  444SOL    HW2 1374   4.684   2.399   1.440  0.2946 -0.5251 -1.1025
  445SOL     OW 1375   1.541   3.274   0.408  0.4103 -0.0021 -0.6357
  445SOL    HW1 1376   1.625   3.284   0.364  0.3361  0.0711 -0.7627
  445SOL    HW2 1377   1.521   3.181   0.399  0.9503 -0.2202  0.2737
  446SOL     OW 1378   4.514   3.800   0.754 -0.0409 -0.2050 -0.0221
  446SOL    HW1 1379   4.606   3.788   0.780  0.0382  0.4894  0.0371
  446SOL    HW2 1380   4.493   3.889   0.783 -1.2524 -0.9384  1.5114
  447SOL     OW 1381   1.476   2.064   0.487 -0.8900 -0.2516 -0.1491
  447SOL    HW1 1382   1.559   2.108   0.504 -0.9609  0.2736 -1.1139
  447SOL    HW2 1383   1.499   1.988   0.434 -0.7087 -1.7153  1.9023
  448SOL     OW 1384   4.526   3.444   1.255  0.7101  0.0959 -0.0009
  448SOL    HW1 1385   4.608   3.486   1.281  0.2486  0.9729  0.0680
  448SOL    HW2 1386   4.509   3.476   1.167  0.4435 -0.0910 -0.0197
  449SOL     OW 1387   0.718   3.927   0.728  0.2099 -0.5631 -0.3816
  449SOL    HW1 1388   0.743   3.859   0.792 -0.3335 -2.5623 -2.1825
  449SOL    HW2 1389   0.790   3.990   0.731  0.4675 -0.8635  1.7542
  450SOL     OW 1390   0.642   2.446   0.010  0.0610  0.2637  0.1391
  450SOL    HW1 1391   0.638   2.358  -0.029 -1.8307 -0.3505  1.5429
  450SOL    HW2 1392   0.550   2.470   0.023  0.4872  2.8353 -0.9029
  451SOL     OW 1393   1.630   2.270   1.412 -0.4897 -0.0231 -0.1734
  451SOL    HW1 1394   1.655   2.188   1.455  2.1657  0.5261 -0.5234
  451SOL    HW2 1395   1.579   2.243   1.336  0.6871 -1.3843 -0.5108
  452SOL     OW 1396   0.689   1.839   0.283  0.3578  0.2044 -0.4974
  452SOL    HW1 1397   0.657   1.805   0.200 -1.3468  1.9075 -0.5954
  452SOL    HW2 1398   0.614   1.835   0.342  1.1229  0.4346  0.5335
  453SOL     OW 1399   5.447   1.987   1.539  0.4744  0.0163 -0.8036
  453SOL    HW1 1400   5.412   1.977   1.450 -0.9744 -0.6250 -0.1869
  453SOL    HW2 1401   5.452   2.082   1.552  0.7315  0.1150 -1.5685
  454SOL     OW 1402   0.711   3.695   0.922 -0.5610  0.3097  0.0991
  454SOL    HW1 1403   0.792   3.659   0.884  0.0981  0.5195  1.2859
  454SOL    HW2 1404   0.696   3.642   1.000 -1.2052  0.7190  0.2566
  455SOL     OW 1405   1.382   2.625   1.366 -0.1577  0.2962 -0.2310
  455SOL    HW1 1406   1.318   2.637   1.436  0.1928 -0.9776  0.3349
  455SOL    HW2 1407   1.462   2.664   1.401 -0.5795  1.8564 -0.9240
  456SOL     OW 1408   0.591   2.934   0.471  0.2946  0.2144 -0.2569
  456SOL    HW1 1409   0.664   2.994   0.457 -0.3066  0.6683 -1.6868
  456SOL    HW2 1410   0.520   2.970   0.418 -0.0768 -1.7665 -1.2055
  457SOL     OW 1411   0.482   2.383   0.326 -0.5619  0.3335 -0.0038
  457SOL    HW1 1412   0.414   2.448   0.307 -0.7864  0.1682  0.2229
  457SOL    HW2 1413   0.436   2.299   0.323 -0.0997  0.0983 -1.1949
  458SOL     OW 1414   4.567   1.677   0.375 -0.1077 -0.4561 -1.0645
  458SOL    HW1 1415   4.536   1.618   0.307 -0.6614 -1.2226 -0.1809
  458SOL    HW2 1416   4.631   1.625   0.424 -0.8671 -0.4824 -0.0531
  459SOL     OW 1417   1.141   3.091   0.152 -0.2576  0.2616  0.0006
  459SOL    HW1 1418   1.095   3.069   0.070 -1.3588  0.2713  0.5940
  459SOL    HW2 1419   1.184   3.010   0.178 -0.5311  0.0522 -0.1911
  460SOL     OW 1420   0.265   2.193   0.315 -0.0052  0.6110  0.7536
  460SOL    HW1 1421   0.223   2.107   0.317 -1.6036  1.3569  1.9569
  460SOL    HW2 1422   0.273   2.214   0.222  1.8310 -1.4269  0.3505
  461SOL     OW 1423   0.941   1.822   0.378 -0.4939  0.0386  0.0510
  461SOL    HW1 1424   0.849   1.827   0.352 -0.5548  0.6306  0.3474
  461SOL    HW2 1425   0.961   1.910   0.411  0.3903  0.1428 -0.7224
  462SOL     OW 1426   1.103   2.994   1.416  0.1418  0.4569 -0.1045
  462SOL    HW1 1427   1.137   2.982   1.328  1.1633  0.2770  0.3022
  462SOL    HW2 1428   1.011   2.968   1.410 -0.3725  2.3599 -1.5590
  463SOL     OW 1429   1.161   3.350   0.492 -0.4661 -1.0964 -0.0223
  463SOL    HW1 1430   1.138   3.318   0.579 -2.1780 -1.7307 -0.6632
  463SOL    HW2 1431   1.093   3.414   0.472 -0.0530 -0.9167 -0.8743
  464SOL     OW 1432   4.821   2.852   0.865 -0.1728 -0.0189  0.3692
  464SOL    HW1 1433   4.727   2.832   0.862  0.1904 -1.9748  0.4711
  464SOL    HW2 1434   4.846   2.839   0.956  0.3375 -0.2809  0.1968
  465SOL     OW 1435   1.199   3.325   0.223 -0.1860 -0.4345 -0.6652
  465SOL    HW1 1436   1.183   3.318   0.317 -1.0422 -1.2700 -0.8561
  465SOL    HW2 1437   1.166   3.243   0.187 -0.2419  0.0448 -1.7465
  466SOL     OW 1438   3.020   4.393   2.807  0.5267  0.0585 -0.2404
  466SOL    HW1 1439   3.040   4.474   2.855  0.8326 -0.1597  0.0091
  466SOL    HW2 1440   3.093   4.334   2.829  1.0373  0.1753 -1.5064
  467SOL     OW 1441   4.214   2.822   1.726 -1.1358  0.0132  0.0319
  467SOL    HW1 1442   4.196   2.841   1.818 -0.1100 -0.2827  0.2996
  467SOL    HW2 1443   4.254   2.902   1.692  0.3557 -0.5567  0.3775
  468SOL     OW 1444   4.925   2.177   1.274  0.4463 -0.7635 -0.2417
  468SOL    HW1 1445   4.947   2.101   1.328  2.7275 -0.3649 -0.4761
  468SOL    HW2 1446   4.835   2.198   1.296  0.7282 -1.7267  2.0836
  469SOL     OW 1447   0.685   2.137   0.571  0.6294  0.1287 -0.1472
  469SOL    HW1 1448   0.682   2.233   0.574 -1.0269  0.1192 -0.7134
  469SOL    HW2 1449   0.596   2.111   0.550  0.8068 -1.6006  1.0557
  470SOL     OW 1450   4.898   2.060   0.967 -0.1173 -0.1043  0.0260
  470SOL    HW1 1451   4.895   2.040   1.061  1.2262  0.5534  0.2392
  470SOL    HW2 1452   4.871   2.151   0.962 -2.2282 -0.7181 -0.4856
  471SOL     OW 1453   1.375   3.193   1.005 -0.0642 -0.0978 -0.4917
  471SOL    HW1 1454   1.294   3.160   1.044  0.5118 -2.0219 -0.8579
  471SOL    HW2 1455   1.416   3.244   1.075 -1.6025  1.0001 -0.3378
  472SOL     OW 1456   1.270   2.772   1.148 -0.1420 -0.2663 -0.0414
  472SOL    HW1 1457   1.192   2.727   1.115 -0.3498  0.7997 -1.1081
  472SOL    HW2 1458   1.307   2.713   1.213 -2.1023 -0.6035  0.8322
  473SOL     OW 1459   1.841   2.645   0.742  0.3660  0.0350  0.1346
  473SOL    HW1 1460   1.920   2.697   0.755  1.3773 -0.9996 -1.4187
  473SOL    HW2 1461   1.772   2.710   0.724  0.9400  0.9308  1.0615
  474SOL     OW 1462   0.373   3.644   0.148 -0.0370  0.3389 -0.3057
  474SOL    HW1 1463   0.304   3.637   0.082 -0.6816 -1.3295  0.4838
  474SOL    HW2 1464   0.427   3.566   0.135  0.5126  0.5892  0.3951
  475SOL     OW 1465   1.390   3.510   0.413  0.3368 -0.0395 -0.3706
  475SOL    HW1 1466   1.310   3.462   0.438  0.4792  0.5550  1.3508
  475SOL    HW2 1467   1.458   3.443   0.410  0.2133 -0.2078  0.4101
  476SOL     OW 1468   3.914   4.789   3.012 -0.5337  0.6430 -0.3187
  476SOL    HW1 1469   3.854   4.718   3.037  1.0258 -0.6196 -0.0255
  476SOL    HW2 1470   3.939   4.769   2.922 -0.0104  0.7574 -0.2006
  477SOL     OW 1471   0.429   2.093   0.487 -0.3258 -0.5125 -0.1051
  477SOL    HW1 1472   0.382   2.018   0.523 -0.3186 -1.5936 -2.1663
  477SOL    HW2 1473   0.376   2.121   0.412  1.0793 -0.2502 -1.0415
  478SOL     OW 1474   1.722   3.289   1.311 -0.5508  0.0798 -0.6104
  478SOL    HW1 1475   1.718   3.302   1.405 -0.3675  0.5721 -0.6716
  478SOL    HW2 1476   1.814   3.299   1.288 -0.8324  1.8120 -1.1024
  479SOL     OW 1477   1.871   3.886   1.472 -0.3607 -0.3111  0.2009
  479SOL    HW1 1478   1.800   3.833   1.435 -1.3849  1.8200 -1.0638
  479SOL    HW2 1479   1.920   3.917   1.396 -0.7860  1.8245  0.7219
  480SOL     OW 1480   0.671   3.306   0.906  0.1155  0.1911  0.1467
  480SOL    HW1 1481   0.709   3.370   0.967 -0.4329  3.2943 -2.5056
  480SOL    HW2 1482   0.704   3.332   0.820  0.3188 -3.5767 -1.0784
  481SOL     OW 1483   1.515   3.135   0.774  0.0386  0.4983  0.0284
  481SOL    HW1 1484   1.451   3.137   0.844  0.5464 -0.2224  0.5324
  481SOL    HW2 1485   1.464   3.113   0.696 -0.3254 -0.1588  0.4376
  482SOL     OW 1486   0.999   2.014   1.287 -0.3941  0.0488 -0.2295
  482SOL    HW1 1487   0.992   2.108   1.307  1.2365  0.3668 -0.9972
  482SOL    HW2 1488   0.992   2.009   1.192 -1.6542 -0.7631 -0.1185
  483SOL     OW 1489   1.324   3.039   1.588  0.1920  0.0567 -0.1956
  483SOL    HW1 1490   1.234   3.069   1.585  0.8148  2.0110 -0.8233
  483SOL    HW2 1491   1.342   3.010   1.498  0.3458  0.1458 -0.1933
  484SOL     OW 1492   0.746   2.624   0.181  0.1145 -0.2495  0.0840
  484SOL    HW1 1493   0.817   2.568   0.212  0.2141  0.4331  1.1197
  484SOL    HW2 1494   0.692   2.565   0.128  0.5268 -1.1989  0.6711
  485SOL     OW 1495   4.743   2.552   1.157  0.0212 -0.3122 -0.2799
  485SOL    HW1 1496   4.741   2.535   1.251  2.0360  1.0054  0.0536
  485SOL    HW2 1497   4.678   2.492   1.120 -1.4515 -0.2489  2.0282
  486SOL     OW 1498   5.374   2.312   1.546  0.1144 -0.3337  0.4305
  486SOL    HW1 1499   5.452   2.273   1.507  0.3856 -1.4404  1.9502
  486SOL    HW2 1500   5.399   2.402   1.566  1.8299 -1.2103  2.7901
  487SOL     OW 1501   4.599   3.792   1.586  0.6099 -0.0801  0.2475
  487SOL    HW1 1502   4.650   3.831   1.658  1.0278 -0.4738  0.1729
  487SOL    HW2 1503   4.525   3.851   1.575 -0.3884 -0.8754  2.1313
  488SOL     OW 1504   4.507   3.279   0.592  0.1964 -0.3297  0.0813
  488SOL    HW1 1505   4.495   3.365   0.552 -0.8990 -0.5636 -0.1177
  488SOL    HW2 1506   4.577   3.292   0.655 -0.5893  0.9459  0.7382
  489SOL     OW 1507   4.215   2.204   0.887  0.1095 -0.0316 -0.1530
  489SOL    HW1 1508   4.239   2.175   0.799 -0.0139  3.2792 -1.4205
  489SOL    HW2 1509   4.297   2.203   0.936  0.2369 -1.5989 -0.3468
  490SOL     OW 1510   0.761   3.391   0.305  0.0266  1.0465  0.3198
  490SOL    HW1 1511   0.745   3.467   0.362  3.6274  3.3380 -1.4102
  490SOL    HW2 1512   0.718   3.414   0.223 -1.1008 -0.0983  0.5522
  491SOL     OW 1513   1.082   3.324   1.191 -0.3068  0.4217 -0.0574
  491SOL    HW1 1514   1.010   3.374   1.154 -0.7268 -1.2748 -1.6647
  491SOL    HW2 1515   1.079   3.240   1.146  1.6376 -0.3185  1.0628
  492SOL     OW 1516   0.954   2.540   0.469  0.5978 -0.0923  0.0624
  492SOL    HW1 1517   0.869   2.500   0.488  0.4489  0.0215 -0.3727
  492SOL    HW2 1518   0.978   2.586   0.550 -0.2264  0.7360 -0.1571
  493SOL     OW 1519   4.722   3.163   1.055 -0.2776  0.0843  0.0369
  493SOL    HW1 1520   4.629   3.162   1.033 -0.0913 -2.2976 -0.9361
  493SOL    HW2 1521   4.752   3.251   1.033 -2.4509  1.1765  1.1801
  494SOL     OW 1522   5.115   2.370   1.970 -0.3536 -0.3358 -0.1614
  494SOL    HW1 1523   5.066   2.293   1.999 -2.5092  1.5688  1.8086
  494SOL    HW2 1524   5.050   2.422   1.923  0.9871  0.3845 -1.2517
  495SOL     OW 1525   2.083   2.853   1.162  0.2781  0.1243 -0.1377
  495SOL    HW1 1526   2.010   2.844   1.101  0.8758 -0.0836 -0.8363
  495SOL    HW2 1527   2.140   2.779   1.142 -0.0354 -0.5739  1.4265
  496SOL     OW 1528   5.309   1.772   1.660 -0.3085 -0.0170  0.0679
  496SOL    HW1 1529   5.364   1.831   1.609 -0.4112 -0.5062 -0.6128
  496SOL    HW2 1530   5.353   1.766   1.745 -0.0856  0.7176  0.0179
  497SOL     OW 1531   4.701   1.528   1.894 -0.0455 -0.1191 -0.6194
  497SOL    HW1 1532   4.611   1.499   1.906 -0.0304  0.5385  1.4651
  497SOL    HW2 1533   4.720   1.511   1.801 -1.7279 -1.8432 -0.7111
  498SOL     OW 1534   4.523   2.978   1.558  0.2994  0.2536 -0.0328
  498SOL    HW1 1535   4.505   3.019   1.643  1.3161  2.7546 -0.9272
  498SOL    HW2 1536   4.512   3.049   1.495  1.4206 -1.0740 -1.7980
  499SOL     OW 1537   1.425   2.958   1.325  0.0314  0.3975  0.1105
  499SOL    HW1 1538   1.390   2.911   1.249  0.6321  0.9292 -0.5214
  499SOL    HW2 1539   1.509   2.915   1.342 -0.8901 -0.8976  1.6391
  500SOL     OW 1540   3.676   4.347   3.003  0.1272  0.7094  0.1290
  500SOL    HW1 1541   3.607   4.344   3.069  0.9776 -1.2140  1.0039
  500SOL    HW2 1542   3.750   4.390   3.047  0.5060 -0.0517  0.2433
  501SOL     OW 1543   4.543   1.791   1.522 -0.1155 -0.1321 -0.1977
  501SOL    HW1 1544   4.476   1.850   1.557 -0.9012 -1.3105  0.3433
  501SOL    HW2 1545   4.619   1.848   1.507 -0.4774  0.8265  1.3467
  502SOL     OW 1546   4.522   3.228   1.440 -0.4365  0.2002 -0.4340
  502SOL    HW1 1547   4.430   3.250   1.454  0.5098  4.3469  0.6535
  502SOL    HW2 1548   4.557   3.302   1.391  2.7780 -0.2436  0.9548
  503SOL     OW 1549   4.948   2.664   1.047  0.5006 -0.4960  0.2109
  503SOL    HW1 1550   4.875   2.612   1.082  0.0400 -0.8868 -1.2411
  503SOL    HW2 1551   4.946   2.746   1.097 -1.1105 -0.3912  0.0232
  504SOL     OW 1552   1.902   2.796   1.483 -0.3374 -0.0718  0.2864
  504SOL    HW1 1553   1.824   2.832   1.525 -0.4571  1.4759 -1.1451
  504SOL    HW2 1554   1.870   2.722   1.433 -0.7470  0.0485  0.3693
  505SOL     OW 1555   4.552   1.934   0.647 -0.1871 -0.3627 -0.0727
  505SOL    HW1 1556   4.501   2.010   0.620 -0.7648 -0.6033  0.3242
  505SOL    HW2 1557   4.495   1.859   0.627  0.3120 -0.6843 -0.3168
  506SOL     OW 1558   1.389   2.527   0.616 -0.6607  0.5244  0.3173
  506SOL    HW1 1559   1.402   2.593   0.683  0.5429 -1.5657  2.2917
  506SOL    HW2 1560   1.477   2.498   0.593 -1.1624 -0.7983 -0.0360
  507SOL     OW 1561   1.038   2.938   0.901  0.2580  0.0736 -0.3324
  507SOL    HW1 1562   0.945   2.959   0.901  0.1175 -0.3789 -2.4843
  507SOL    HW2 1563   1.041   2.845   0.927  0.3564  0.6659  2.0719
  508SOL     OW 1564   5.426   3.523   1.672 -0.0588 -0.6101  0.6765
  508SOL    HW1 1565   5.515   3.495   1.691  0.5518  1.5925  1.3525
  508SOL    HW2 1566   5.387   3.539   1.758 -0.1233  1.2161  0.3406
  509SOL     OW 1567   2.103   3.464   1.561 -0.6945  0.1020  0.3823
  509SOL    HW1 1568   2.084   3.375   1.529 -1.7197  0.4984 -0.1627
  509SOL    HW2 1569   2.022   3.513   1.544  0.1213  1.3365 -0.0511
  510SOL     OW 1570   4.859   2.805   1.629  0.0873 -0.2558 -0.6123
  510SOL    HW1 1571   4.891   2.832   1.715  1.6040 -1.9575 -0.5799
  510SOL    HW2 1572   4.792   2.739   1.648  0.5516 -0.7655 -0.7181
  511SOL     OW 1573   1.650   2.436   0.130 -0.4076 -0.4833  0.2018
  511SOL    HW1 1574   1.632   2.355   0.178 -0.2980 -0.2477  0.6491
  511SOL    HW2 1575   1.677   2.498   0.198 -0.8580  0.0367 -0.0884
  512SOL     OW 1576   3.474   5.013   2.802 -0.0167 -0.2112  0.1310
  512SOL    HW1 1577   3.396   4.957   2.798 -0.7504  0.8229 -0.7213
  512SOL    HW2 1578   3.522   4.993   2.721 -0.3768  0.4890 -0.2696
  513SOL     OW 1579   0.855   3.480   0.731  0.6168 -0.1918 -0.4450
  513SOL    HW1 1580   0.925   3.415   0.723 -0.3283 -1.4582  1.1359
  513SOL    HW2 1581   0.860   3.530   0.649  1.4307 -2.1728 -1.6753
  514SOL     OW 1582   0.580   2.575   0.739  0.3398 -0.2030  0.4631
  514SOL    HW1 1583   0.609   2.593   0.828  0.2056 -0.1858  0.5022
  514SOL    HW2 1584   0.644   2.621   0.684 -0.2338  0.7366  0.5673
  515SOL     OW 1585   4.541   2.381   0.895  0.0626  0.5660  0.4236
  515SOL    HW1 1586   4.519   2.289   0.878 -1.1490  1.3008 -2.8673
  515SOL    HW2 1587   4.465   2.416   0.941  0.9476 -0.2196  2.6002
  516SOL     OW 1588   1.406   1.936   1.592 -0.2602 -0.1050 -0.1422
  516SOL    HW1 1589   1.437   1.985   1.669 -0.1229  1.1217 -0.9450
  516SOL    HW2 1590   1.312   1.928   1.605  0.0561 -2.1567  1.3705
  517SOL     OW 1591   1.331   1.773   1.356  0.7707  0.2492  0.0854
  517SOL    HW1 1592   1.375   1.832   1.417  1.8594  0.3320 -0.7475
  517SOL    HW2 1593   1.248   1.752   1.399  1.1289  0.9845  1.1918
  518SOL     OW 1594   4.281   3.127   0.556 -0.5614 -0.1507 -0.5520
  518SOL    HW1 1595   4.306   3.036   0.545 -1.2831 -0.7251  1.9382
  518SOL    HW2 1596   4.360   3.170   0.590 -0.9373 -0.4544  0.7550
  519SOL     OW 1597   4.436   3.492   0.984 -0.4146  0.4613  0.3156
  519SOL    HW1 1598   4.361   3.432   0.987  0.5303 -0.7155  1.3747
  519SOL    HW2 1599   4.472   3.481   0.896 -1.9646  1.6971 -0.5230
  520SOL     OW 1600   0.530   3.311   0.527  0.5034 -0.0133 -0.1152
  520SOL    HW1 1601   0.586   3.288   0.452 -1.2764 -1.1416 -1.1854
  520SOL    HW2 1602   0.533   3.234   0.583 -0.1221 -0.1716 -0.2906
  521SOL     OW 1603   0.793   3.049   0.930  0.1499  0.3589  0.0972
  521SOL    HW1 1604   0.745   3.022   1.008 -2.5206 -0.0658 -1.5753
  521SOL    HW2 1605   0.756   3.134   0.907  0.0107 -0.0671 -1.3616
  522SOL     OW 1606   4.458   2.733   1.347  0.0559 -0.0885  0.8805
  522SOL    HW1 1607   4.538   2.681   1.359  0.2213  0.1093  0.6625
  522SOL    HW2 1608   4.486   2.823   1.367  0.3033  0.2295 -0.7603
  523SOL     OW 1609   4.778   2.659   2.075 -0.2207 -0.7299 -0.4919
  523SOL    HW1 1610   4.701   2.704   2.040 -2.2716 -0.7452  3.3698
  523SOL    HW2 1611   4.833   2.728   2.110 -1.5266 -0.8094  2.0166
  524SOL     OW 1612   1.598   2.767   1.471  0.2643  0.5193 -0.7623
  524SOL    HW1 1613   1.644   2.819   1.406 -0.2390  0.6128 -1.0464
  524SOL    HW2 1614   1.628   2.802   1.555  1.4648 -0.0844 -0.9242
  525SOL     OW 1615   1.025   2.537   0.222 -0.3773 -0.3256  0.2660
  525SOL    HW1 1616   1.054   2.447   0.209  1.5461  0.3138 -0.2726
  525SOL    HW2 1617   1.014   2.546   0.316  0.7692 -0.7730  0.4611
  526SOL     OW 1618   1.285   2.224   1.490 -0.1254 -0.5038  0.5319
  526SOL    HW1 1619   1.324   2.202   1.405 -0.1404  0.7597  0.1847
  526SOL    HW2 1620   1.358   2.218   1.552  0.0743 -0.5757  0.2920
  527SOL     OW 1621   4.040   3.416   1.780  0.0640 -0.0865  0.0185
  527SOL    HW1 1622   4.127   3.437   1.813  0.8014 -0.7953 -1.3870
  527SOL    HW2 1623   4.050   3.414   1.685 -1.1576 -1.5611 -0.1192
  528SOL     OW 1624   4.998   2.450   1.293  0.5161 -0.6360  0.0767
  528SOL    HW1 1625   4.996   2.361   1.257  1.5207  0.4475 -3.0311
  528SOL    HW2 1626   4.909   2.466   1.324  0.4128 -2.7990  1.0785
  529SOL     OW 1627   1.006   3.610   1.326 -0.2137  0.1495 -0.9593
  529SOL    HW1 1628   0.943   3.572   1.264 -2.2185 -1.1428  1.6419
  529SOL    HW2 1629   0.975   3.700   1.338  0.1606  0.3958 -1.7509
  530SOL     OW 1630   3.183   4.603   2.883  0.2795 -0.3868  0.2164
  530SOL    HW1 1631   3.237   4.560   2.817  2.0063  1.3490  0.4032
  530SOL    HW2 1632   3.182   4.695   2.858  1.0156  0.3458  2.5447
  531SOL     OW 1633   4.965   2.896   1.913  0.1474 -0.1029 -0.2626
  531SOL    HW1 1634   4.968   2.879   2.007  0.9054  1.1613 -0.0418
  531SOL    HW2 1635   5.054   2.925   1.891  0.3543 -1.6164 -1.6213
  532SOL     OW 1636   1.164   3.026   1.132 -0.2770 -0.0532 -0.0724
  532SOL    HW1 1637   1.203   2.939   1.139 -1.6298 -0.6332  0.8290
  532SOL    HW2 1638   1.107   3.021   1.055  0.6734  0.4832 -0.8231
  533SOL     OW 1639   1.567   2.800   0.190 -0.0201  0.1282  0.1757
  533SOL    HW1 1640   1.622   2.800   0.112  0.2700 -1.5732  0.3491
  533SOL    HW2 1641   1.477   2.798   0.156  0.0079  1.7376 -0.0945
  534SOL     OW 1642   1.871   3.450   0.601  0.0414  0.0031  0.3963
  534SOL    HW1 1643   1.931   3.416   0.668 -0.5570 -0.1689  0.8594
  534SOL    HW2 1644   1.784   3.425   0.633 -0.3671  1.2864  0.3429
  535SOL     OW 1645   1.403   3.681   0.946 -0.4532  0.2638 -0.0363
  535SOL    HW1 1646   1.476   3.713   0.894 -0.2888  2.0767  1.2059
  535SOL    HW2 1647   1.443   3.636   1.021 -0.6263  0.3344  0.1016
  536SOL     OW 1648   4.620   2.983   1.258 -0.0650  0.5724  0.4199
  536SOL    HW1 1649   4.632   3.047   1.187 -0.9659 -0.3300 -0.5958
  536SOL    HW2 1650   4.536   3.006   1.297 -0.7945 -0.4288 -0.4808
  537SOL     OW 1651   5.337   3.321   2.045 -0.0926 -0.5079 -0.4572
  537SOL    HW1 1652   5.354   3.408   2.009  0.5650 -0.7705 -0.7890
  537SOL    HW2 1653   5.361   3.329   2.137 -1.2549  0.0108 -0.1831
  538SOL     OW 1654   0.785   2.048   0.146  0.2713  0.2047  0.3502
  538SOL    HW1 1655   0.876   2.019   0.145  0.6089  1.0486  2.1343
  538SOL    HW2 1656   0.741   1.989   0.207 -0.0714  0.5905  0.4855
  539SOL     OW 1657   1.655   2.218   0.875 -0.1167  0.2420 -0.3749
  539SOL    HW1 1658   1.689   2.133   0.846 -2.0068 -1.2149  1.3999
  539SOL    HW2 1659   1.568   2.224   0.835 -0.1904  1.1467 -0.1061
  540SOL     OW 1660   1.065   3.479   0.021 -0.1524  0.6237  0.1567
  540SOL    HW1 1661   0.991   3.419   0.024  2.2577 -2.8344 -2.3681
  540SOL    HW2 1662   1.131   3.439   0.077  1.8534  0.2369 -2.3002
  541SOL     OW 1663   4.597   3.119   2.099  0.3837  0.1333  0.0529
  541SOL    HW1 1664   4.663   3.159   2.156  1.2472  1.6815 -1.9211
  541SOL    HW2 1665   4.645   3.099   2.018 -1.1776 -0.4221 -0.7640
  542SOL     OW 1666   1.253   2.880   0.729 -0.4554  0.1044 -0.4996
  542SOL    HW1 1667   1.167   2.905   0.765 -0.5610 -0.6152 -0.2297
  542SOL    HW2 1668   1.266   2.940   0.655 -0.2263  1.6397  0.7162
  543SOL     OW 1669   5.190   3.168   1.242 -0.0014  0.2001  0.1752
  543SOL    HW1 1670   5.237   3.225   1.303 -0.6446  1.3113 -0.3404
  543SOL    HW2 1671   5.148   3.228   1.181 -1.7105 -0.7782  0.3328
  544SOL     OW 1672   0.357   3.761   0.389  0.0157  0.1100  0.1917
  544SOL    HW1 1673   0.367   3.684   0.445  0.6835 -0.3387 -0.5222
  544SOL    HW2 1674   0.354   3.725   0.300  1.7265  0.9899 -0.2631
  545SOL     OW 1675   1.830   4.079   1.652  0.1855 -0.5784 -0.1110
  545SOL    HW1 1676   1.861   4.004   1.601 -2.7650 -2.3707  0.4886
  545SOL    HW2 1677   1.754   4.110   1.604 -1.0887 -0.6297  1.7825
  546SOL     OW 1678   1.629   2.140   1.134 -0.1880 -0.1608  0.5283
  546SOL    HW1 1679   1.633   2.183   1.048 -0.2825 -1.1039  0.0334
  546SOL    HW2 1680   1.720   2.135   1.163 -0.2442  1.0966  0.9796
  547SOL     OW 1681   4.284   2.141   0.615 -0.2896  0.3435 -0.0367
  547SOL    HW1 1682   4.257   2.092   0.538 -0.9057  0.5555  0.0318
  547SOL    HW2 1683   4.366   2.184   0.590  1.5088 -2.4340  0.6066
  548SOL     OW 1684   3.231   5.268   2.773  0.2882  0.3801 -0.1172
  548SOL    HW1 1685   3.254   5.358   2.796 -1.0396  0.5462  0.6795
  548SOL    HW2 1686   3.253   5.218   2.852 -3.5101  0.8175  1.4098
  549SOL     OW 1687   4.974   3.124   1.581 -0.1307 -0.6228  0.1696
  549SOL    HW1 1688   4.958   3.051   1.521  0.1174  0.6700 -1.5344
  549SOL    HW2 1689   5.052   3.167   1.547 -0.8385  1.0285  0.5458
  550SOL     OW 1690   3.299   4.843   3.034 -0.5150 -0.5361  0.1269
  550SOL    HW1 1691   3.258   4.801   3.109  0.2481 -0.9954  0.3016
  550SOL    HW2 1692   3.381   4.794   3.022  0.7652  1.3271  0.7946
  551SOL     OW 1693   3.544   5.404   2.942  0.2956 -0.2174 -0.2327
  551SOL    HW1 1694   3.576   5.479   2.992  1.1864  0.4297 -1.7019
  551SOL    HW2 1695   3.458   5.431   2.910 -0.3993 -0.7423  1.1386
  552SOL     OW 1696   4.794   3.446   1.033 -0.6863 -0.5824 -0.0120
  552SOL    HW1 1697   4.815   3.528   1.077 -1.7433 -0.1337 -0.3282
  552SOL    HW2 1698   4.878   3.415   1.000 -0.1988  0.1122  0.5336
  553SOL     OW 1699   1.454   3.242   1.265 -0.1690 -0.1492 -0.4332
  553SOL    HW1 1700   1.548   3.254   1.282 -0.2608  0.9425 -0.5867
  553SOL    HW2 1701   1.431   3.162   1.312  0.4450  0.5824  1.2004
  554SOL     OW 1702   0.783   3.126   0.434  0.5162  0.1222  0.1183
  554SOL    HW1 1703   0.862   3.132   0.488 -0.1159  3.2933  0.8797
  554SOL    HW2 1704   0.785   3.205   0.380 -0.8012 -1.1121 -1.8260
  555SOL     OW 1705   0.827   2.504   0.951 -0.3712  0.0796 -0.2020
  555SOL    HW1 1706   0.770   2.559   1.006  0.1619  1.5979 -1.0969
  555SOL    HW2 1707   0.812   2.415   0.983 -0.4350  0.8265  2.0842
  556SOL     OW 1708   4.457   3.562   0.506  0.7157  0.3337 -0.0015
  556SOL    HW1 1709   4.396   3.601   0.569 -1.0559 -1.4886 -0.4804
  556SOL    HW2 1710   4.446   3.613   0.427  0.2300  0.3872  0.0964
  557SOL     OW 1711   1.820   2.592   1.260  0.4845 -0.1777 -0.1709
  557SOL    HW1 1712   1.749   2.611   1.199  1.3610 -1.1688 -1.5542
  557SOL    HW2 1713   1.884   2.543   1.209  1.5390 -0.5376  1.3983
  558SOL     OW 1714   4.348   3.657   0.249  0.5660  0.0661 -0.1407
  558SOL    HW1 1715   4.312   3.602   0.180 -0.2627  0.5547 -0.1087
  558SOL    HW2 1716   4.319   3.746   0.227  2.3199  0.6052 -0.4976
  559SOL     OW 1717   4.129   2.897   1.955  0.0388 -0.0257  0.3002
  559SOL    HW1 1718   4.136   2.874   2.048 -0.5134 -0.8044  0.1655
  559SOL    HW2 1719   4.160   2.987   1.950 -0.3272  0.1713  1.3046
  560SOL     OW 1720   1.010   2.303   1.211 -0.0903  0.1340 -0.0895
  560SOL    HW1 1721   0.921   2.305   1.175 -0.1683  2.5517  0.1278
  560SOL    HW2 1722   1.017   2.383   1.263  1.1588 -1.5450  2.5642
  561SOL     OW 1723   2.202   4.581   2.647  0.3724 -0.1193 -0.2606
  561SOL    HW1 1724   2.189   4.520   2.575  0.9069 -0.7428  0.1498
  561SOL    HW2 1725   2.239   4.527   2.718  0.2741  0.5577  0.3257
  562SOL     OW 1726   1.711   2.900   1.260  0.0540 -0.1633 -0.4756
  562SOL    HW1 1727   1.726   2.987   1.224  0.8606 -0.1477 -0.1102
  562SOL    HW2 1728   1.723   2.840   1.185  1.9327 -0.1508 -0.2159
  563SOL     OW 1729   3.994   1.894   0.431 -0.3011  0.0528  0.2794
  563SOL    HW1 1730   3.999   1.852   0.517 -1.0111 -0.1009  0.2511
  563SOL    HW2 1731   4.081   1.933   0.418 -0.4167  0.7191  1.3865
  564SOL     OW 1732   3.198   5.099   2.993 -0.3729  0.0927  0.0429
  564SOL    HW1 1733   3.213   5.008   3.017  0.6808  0.5077  1.0642
  564SOL    HW2 1734   3.103   5.110   2.998 -0.4793 -0.8580  0.2515
  565SOL     OW 1735   5.179   3.053   1.855  0.1160  0.0137  0.5211
  565SOL    HW1 1736   5.101   3.105   1.870 -0.6521 -1.1250  0.5768
  565SOL    HW2 1737   5.199   3.067   1.762 -0.9818 -0.7777  0.1464
  566SOL     OW 1738   1.644   3.739   1.420 -0.0676  0.0042  0.5883
  566SOL    HW1 1739   1.617   3.687   1.495  0.8760 -2.0362 -0.4059
  566SOL    HW2 1740   1.590   3.708   1.348 -0.7693  1.7373  0.3058
  567SOL     OW 1741   5.168   2.920   1.422 -0.3729 -0.0524 -0.5954
  567SOL    HW1 1742   5.128   2.968   1.350 -2.1359 -0.4150  0.0877
  567SOL    HW2 1743   5.103   2.854   1.446  0.5429 -0.5098  0.7488
  568SOL     OW 1744   1.473   2.911   1.780 -0.2392  0.1729  0.2470
  568SOL    HW1 1745   1.430   2.973   1.722  0.0888  1.4117  1.2727
  568SOL    HW2 1746   1.445   2.825   1.749  0.8158  0.7099 -2.4318
  569SOL     OW 1747   4.726   3.307   1.683  0.3970  1.2731 -0.6448
  569SOL    HW1 1748   4.742   3.234   1.623 -1.8783 -1.3827  1.6437
  569SOL    HW2 1749   4.650   3.353   1.644 -0.1146  0.4980 -0.5874
  570SOL     OW 1750   1.461   2.439   1.032  0.6121 -0.1274 -0.7629
  570SOL    HW1 1751   1.403   2.386   1.086  0.8109 -0.3381 -0.7518
  570SOL    HW2 1752   1.403   2.491   0.977  0.3602  1.7442  1.1757
  571SOL     OW 1753   0.949   2.098   0.447 -0.6625  0.5242  0.0260
  571SOL    HW1 1754   0.971   2.157   0.375  0.1844  0.4625  0.2204
  571SOL    HW2 1755   0.866   2.131   0.481  0.3515  2.3729  0.8909
  572SOL     OW 1756   4.486   2.325   0.526 -0.1943  0.1157  0.3622
  572SOL    HW1 1757   4.544   2.272   0.471  0.5574 -0.3606  1.5598
  572SOL    HW2 1758   4.545   2.388   0.567 -0.7210  0.3876  0.6987
  573SOL     OW 1759   1.840   2.448   1.485  0.7163 -0.0681 -0.6072
  573SOL    HW1 1760   1.829   2.522   1.425  2.0036 -0.6845 -1.6686
  573SOL    HW2 1761   1.767   2.390   1.465  0.0538  0.6119 -0.2059
  574SOL     OW 1762   1.636   2.650   1.085 -0.3841 -0.1724 -0.1993
  574SOL    HW1 1763   1.584   2.571   1.096 -0.5983 -0.1775 -1.1613
  574SOL    HW2 1764   1.594   2.698   1.014  2.2911 -1.3847 -2.8185
  575SOL     OW 1765   0.379   2.818   0.096 -0.2399 -1.1467  0.0398
  575SOL    HW1 1766   0.373   2.745   0.159 -1.4101 -1.8824 -0.8762
  575SOL    HW2 1767   0.309   2.877   0.123 -0.2592 -1.0971 -0.1205
  576SOL     OW 1768   4.831   4.153   0.841  0.4073 -0.2791 -0.6732
  576SOL    HW1 1769   4.893   4.206   0.791  1.5654 -1.3161 -0.3792
  576SOL    HW2 1770   4.883   4.080   0.873 -0.7420 -0.6221  0.4706
  577SOL     OW 1771   0.967   3.098   0.630 -0.4599  0.0221  0.3787
  577SOL    HW1 1772   0.986   3.021   0.576 -0.9215 -1.0050  1.6414
  577SOL    HW2 1773   0.927   3.063   0.709 -1.6995  1.6498  0.5211
  578SOL     OW 1774   3.427   4.707   2.724 -0.5515 -0.0375 -0.2059
  578SOL    HW1 1775   3.468   4.708   2.637 -0.0455 -1.9451 -0.0305
  578SOL    HW2 1776   3.500   4.693   2.784 -0.6957  2.6949  0.7112
  579SOL     OW 1777   1.578   3.867   0.571 -0.8810 -0.6929  0.4929
  579SOL    HW1 1778   1.500   3.826   0.608  0.1960 -2.3159  1.0651
  579SOL    HW2 1779   1.588   3.827   0.485 -0.6337 -0.5467  0.4530
  580SOL     OW 1780   4.740   3.016   1.875 -0.0375 -0.0413  0.3901
  580SOL    HW1 1781   4.824   2.972   1.887  0.1029  0.5896  1.9712
  580SOL    HW2 1782   4.752   3.069   1.796  1.2615  0.4864  0.9120
  581SOL     OW 1783   4.182   3.087   0.923 -0.0123 -0.4716  0.1503
  581SOL    HW1 1784   4.190   3.004   0.876 -1.2095  0.2913 -1.5049
  581SOL    HW2 1785   4.088   3.094   0.944  0.0787  0.4255  0.3089
  582SOL     OW 1786   4.954   3.231   1.838 -0.1186  0.1771  0.2413
  582SOL    HW1 1787   4.888   3.299   1.832 -0.4396 -0.1066  0.5181
  582SOL    HW2 1788   4.958   3.193   1.750 -0.3651  0.1583  0.2371
  583SOL     OW 1789   1.402   2.236   1.228 -0.5298  0.0839 -0.4950
  583SOL    HW1 1790   1.337   2.223   1.159 -0.3188  0.4277 -0.7616
  583SOL    HW2 1791   1.484   2.202   1.191 -0.5368 -0.2670 -0.1942
  584SOL     OW 1792   4.755   1.842   0.805  0.4911  0.2731  0.3652
  584SOL    HW1 1793   4.679   1.888   0.770  2.2211  2.7056 -0.4447
  584SOL    HW2 1794   4.814   1.911   0.835  1.5017 -1.5744  3.0234
  585SOL     OW 1795   1.628   3.383   0.962  0.2201 -0.5471 -0.1789
  585SOL    HW1 1796   1.719   3.412   0.973  0.5122 -1.4119 -0.2092
  585SOL    HW2 1797   1.611   3.394   0.868 -0.2900  1.2218  0.0888
  586SOL     OW 1798   4.543   2.258   1.242  0.6134 -0.1388  0.0639
  586SOL    HW1 1799   4.614   2.243   1.304  1.6685  0.2467 -1.0122
  586SOL    HW2 1800   4.467   2.215   1.281  1.4700 -0.6924  1.1674
  587SOL     OW 1801   4.788   3.897   0.959 -0.2679  0.5983 -0.0609
  587SOL    HW1 1802   4.700   3.932   0.968 -1.1713 -1.7627  1.0152
  587SOL    HW2 1803   4.788   3.854   0.873 -0.0230  0.9252 -0.2277
  588SOL     OW 1804   1.251   1.911   1.002  0.0913  0.5550  0.0655
  588SOL    HW1 1805   1.203   1.992   0.987  0.0997  0.7248  0.8859
  588SOL    HW2 1806   1.288   1.921   1.090  0.6261 -0.0722 -0.0735
  589SOL     OW 1807   0.805   2.233   1.031  0.4546  0.7325 -0.8476
  589SOL    HW1 1808   0.733   2.172   1.023  0.7050  0.3168 -0.1070
  589SOL    HW2 1809   0.879   2.189   0.990  0.7608  0.2908  0.1251
  590SOL     OW 1810   0.547   2.693   0.353 -0.1792 -0.0781  0.4033
  590SOL    HW1 1811   0.569   2.770   0.406 -0.3937  0.4569 -0.2865
  590SOL    HW2 1812   0.623   2.681   0.296 -0.8064  0.5590 -0.5749
  591SOL     OW 1813   5.033   3.418   1.434  0.3034 -0.2342  0.4653
  591SOL    HW1 1814   5.053   3.434   1.342  2.5738  2.1629  1.2583
  591SOL    HW2 1815   5.107   3.366   1.467  0.2379  0.1438  1.2419
  592SOL     OW 1816   1.647   1.596  -0.008 -0.2145 -0.0196 -0.1121
  592SOL    HW1 1817   1.584   1.661  -0.042 -1.1349 -1.8235 -2.1308
  592SOL    HW2 1818   1.593   1.536   0.043  0.3136 -0.1970  0.2326
  593SOL     OW 1819   0.726   1.924   0.742 -0.0582  0.2378  0.5359
  593SOL    HW1 1820   0.688   1.952   0.826 -1.0805 -0.1164  0.2026
  593SOL    HW2 1821   0.702   1.993   0.681 -2.3156 -1.1125 -0.2222
  594SOL     OW 1822   1.607   2.478   0.457  0.5817  0.2353 -0.2662
  594SOL    HW1 1823   1.681   2.418   0.464  0.5667  0.0677 -1.4145
  594SOL    HW2 1824   1.647   2.565   0.449  0.6200  0.2857  0.4054
  595SOL     OW 1825   4.304   2.851   0.544 -0.3819 -0.0374 -0.5280
  595SOL    HW1 1826   4.390   2.815   0.566 -0.0820  0.7666 -0.3556
  595SOL    HW2 1827   4.242   2.780   0.563 -0.0458  0.2512  1.9760
  596SOL     OW 1828   0.571   3.851   0.191  0.3051 -0.0906 -0.3282
  596SOL    HW1 1829   0.496   3.797   0.168  0.4337  0.2905 -1.7274
  596SOL    HW2 1830   0.535   3.938   0.206  0.5185  0.2539 -1.6787
  597SOL     OW 1831   4.631   2.425   2.104  0.1507 -0.2482 -0.0721
  597SOL    HW1 1832   4.681   2.500   2.136  1.1273  0.7089 -3.4554
  597SOL    HW2 1833   4.647   2.356   2.169  2.3164  1.3389  1.1950
  598SOL     OW 1834   4.314   6.302   2.868  0.0532 -0.2947 -0.5590
  598SOL    HW1 1835   4.363   6.234   2.914 -0.5593 -1.0817 -1.0306
  598SOL    HW2 1836   4.364   6.318   2.788  1.1997  1.1814  0.4041
  599SOL     OW 1837   4.415   2.074   2.043 -0.3683 -0.2969  0.0006
  599SOL    HW1 1838   4.361   2.121   2.108 -0.6107  0.2900 -0.6117
  599SOL    HW2 1839   4.497   2.056   2.089 -0.5235  0.1440  0.4616
  600SOL     OW 1840   2.590   0.962   0.083  0.3777 -0.2430  0.2275
  600SOL    HW1 1841   2.534   0.885   0.094  1.7101 -1.1081  1.4444
  600SOL    HW2 1842   2.560   1.023   0.150 -0.2386  0.0400 -0.2935
  601SOL     OW 1843   1.704   3.762   2.160 -0.3090  0.3626 -0.0794
  601SOL    HW1 1844   1.766   3.697   2.194 -0.1765 -0.3745 -1.6300
  601SOL    HW2 1845   1.651   3.786   2.236  1.0915  0.1307  1.0227
  602SOL     OW 1846   5.644   2.615   2.594  0.2000  0.0809 -0.3835
  602SOL    HW1 1847   5.702   2.625   2.670  1.6251  0.3128 -1.4580
  602SOL    HW2 1848   5.687   2.664   2.524 -0.1575 -1.5774 -1.8382
  603SOL     OW 1849   1.816   2.317   1.866 -0.1188  0.1732 -0.4112
  603SOL    HW1 1850   1.891   2.335   1.810 -1.6292  1.1955 -2.1897
  603SOL    HW2 1851   1.846   2.341   1.954  1.7587  0.1170 -0.9953
  604SOL     OW 1852   5.020   3.407   3.031 -0.0038  0.0170 -0.1996
  604SOL    HW1 1853   5.044   3.497   3.006 -2.8903  0.8479 -0.4115
  604SOL    HW2 1854   4.926   3.403   3.015  0.0716 -3.1670 -0.3887
  605SOL     OW 1855   5.210   2.887   2.313  0.1730  0.2805 -0.0186
  605SOL    HW1 1856   5.226   2.981   2.317 -1.6586  0.5859  1.1246
  605SOL    HW2 1857   5.297   2.848   2.308  0.9546  2.0292 -0.7548
  606SOL     OW 1858   4.900   3.649   2.726 -0.5582 -0.8092  0.0016
  606SOL    HW1 1859   4.875   3.655   2.633  1.1036  2.8558 -0.4052
  606SOL    HW2 1860   4.969   3.583   2.728 -2.2891 -2.7478 -0.8467
  607SOL     OW 1861   3.891   0.866   0.029 -0.6309  0.2431  0.0521
  607SOL    HW1 1862   3.950   0.922   0.079 -1.4051  0.5885  0.5926
  607SOL    HW2 1863   3.804   0.899   0.048 -1.1986 -1.7661  1.1901
  608SOL     OW 1864   5.858   2.259   2.662  0.4528  0.0495 -0.8965
  608SOL    HW1 1865   5.899   2.196   2.603  1.0820 -0.5150  0.1124
  608SOL    HW2 1866   5.931   2.310   2.697  0.3228 -0.8903  0.8365
  609SOL     OW 1867   4.718   3.318   2.650 -0.1708 -0.1657 -0.5143
  609SOL    HW1 1868   4.785   3.362   2.702 -0.7328 -0.4424  0.4810
  609SOL    HW2 1869   4.766   3.258   2.593  0.4827  0.4066 -0.5774
  610SOL     OW 1870   4.726   3.454   2.173  0.1911  0.1934 -0.3839
  610SOL    HW1 1871   4.677   3.468   2.093 -2.6233  0.5287  1.2608
  610SOL    HW2 1872   4.677   3.503   2.240  0.5351 -2.6285  2.1284
  611SOL     OW 1873   4.864   2.824   2.670  0.4040  0.1678  0.0128
  611SOL    HW1 1874   4.950   2.864   2.658  0.5879  0.1433  1.1316
  611SOL    HW2 1875   4.881   2.730   2.673  0.2304  0.1153 -0.5923
  612SOL     OW 1876   2.870   1.383   0.789 -0.7087  0.1516 -0.2780
  612SOL    HW1 1877   2.922   1.306   0.769 -1.5137 -0.4587 -0.0802
  612SOL    HW2 1878   2.782   1.362   0.758 -0.8276  1.2028 -0.6985
  613SOL     OW 1879   5.515   3.147   1.890  0.3760  0.5139 -0.0292
  613SOL    HW1 1880   5.482   3.123   1.803 -1.3863 -0.3139  0.8327
  613SOL    HW2 1881   5.438   3.176   1.938  0.9029 -1.2506  1.9951
  614SOL     OW 1882   3.301   4.160   0.397 -0.0595 -0.4134 -0.2826
  614SOL    HW1 1883   3.279   4.150   0.490  0.9389  1.9006  0.2695
  614SOL    HW2 1884   3.396   4.167   0.396 -0.1766  1.8079 -1.1724
  615SOL     OW 1885   4.789   2.477   2.312 -0.3664  0.0873 -0.6595
  615SOL    HW1 1886   4.869   2.517   2.277  0.0223  0.4012  0.5269
  615SOL    HW2 1887   4.747   2.546   2.363 -1.2288 -0.1754 -1.0024
  616SOL     OW 1888   1.785   3.255   2.350 -0.8084  0.1582 -0.0124
  616SOL    HW1 1889   1.695   3.249   2.382 -0.7682 -0.2561  0.0224
  616SOL    HW2 1890   1.821   3.167   2.360 -0.0638  0.5484  0.9498
  617SOL     OW 1891   4.723   2.908   2.252 -0.4699  0.4250  0.6069
  617SOL    HW1 1892   4.815   2.911   2.225  0.0805  1.1598  2.4200
  617SOL    HW2 1893   4.678   2.966   2.191  0.2705  0.1026 -0.2652
  618SOL     OW 1894   5.559   2.906   2.479 -0.6707  0.0891 -0.2074
  618SOL    HW1 1895   5.648   2.870   2.478 -0.3443  0.8795 -0.8385
  618SOL    HW2 1896   5.509   2.849   2.422 -0.6907 -0.6289  0.5091
  619SOL     OW 1897   5.795   2.749   2.425 -0.0080  0.3618 -0.6563
  619SOL    HW1 1898   5.822   2.683   2.362  0.3763 -0.7503  0.6230
  619SOL    HW2 1899   5.867   2.813   2.425  0.6134 -0.3233 -0.3991
  620SOL     OW 1900   5.034   3.390   2.408  0.3411  0.5337  0.0924
  620SOL    HW1 1901   5.062   3.453   2.341  1.6558  0.7465  0.8229
  620SOL    HW2 1902   5.064   3.305   2.375  0.0877  0.4952 -0.0530
  621SOL     OW 1903   3.492   1.088   0.459 -0.7838  0.3506  0.4222
  621SOL    HW1 1904   3.541   1.006   0.459 -1.4723 -0.0756 -0.4536
  621SOL    HW2 1905   3.400   1.061   0.463 -1.0749  1.0181 -1.2110
  622SOL     OW 1906   5.297   1.934   2.161 -0.8732  0.0371 -0.0467
  622SOL    HW1 1907   5.388   1.932   2.130 -0.7031 -0.9133  0.4811
  622SOL    HW2 1908   5.277   2.027   2.171  0.9813  0.2430  2.5283
  623SOL     OW 1909   4.665   2.620   2.912  0.3643  0.2518 -0.4082
  623SOL    HW1 1910   4.681   2.573   2.994 -0.6481  0.0516 -0.3094
  623SOL    HW2 1911   4.717   2.700   2.920 -1.4987  1.3887  1.5120
  624SOL     OW 1912   1.706   3.054   2.090  0.2054 -0.1901 -0.3269
  624SOL    HW1 1913   1.634   2.991   2.094 -0.3499  0.4090 -0.6621
  624SOL    HW2 1914   1.681   3.123   2.151  0.9541 -0.4333  0.2661
  625SOL     OW 1915   6.088   3.742   2.530  0.3584  0.1020 -0.2399
  625SOL    HW1 1916   6.074   3.787   2.613  1.5744  0.4683 -0.2163
  625SOL    HW2 1917   6.170   3.778   2.497 -0.6203  0.7749 -2.1347
  626SOL     OW 1918   1.820   3.513   2.271  0.0511 -0.4778  0.1733
  626SOL    HW1 1919   1.768   3.545   2.345 -2.9772  1.0346 -2.3628
  626SOL    HW2 1920   1.806   3.419   2.271 -0.6732 -0.3822  1.0153
  627SOL     OW 1921   5.367   2.314   1.928 -0.9635  0.8211 -0.0148
  627SOL    HW1 1922   5.380   2.230   1.884  0.5272  0.6863  0.6321
  627SOL    HW2 1923   5.274   2.316   1.948 -1.1626 -0.3268 -0.7323
  628SOL     OW 1924   5.588   2.331   3.028  0.1899 -0.6435  0.8371
  628SOL    HW1 1925   5.588   2.363   3.118 -2.0842 -0.1047  0.6936
  628SOL    HW2 1926   5.556   2.404   2.976 -2.3765 -2.1319  0.1474
  629SOL     OW 1927   1.893   3.431   1.920 -0.2681  0.6647  0.3289
  629SOL    HW1 1928   1.891   3.490   1.996 -1.4785  2.6695 -1.1761
  629SOL    HW2 1929   1.986   3.422   1.899  0.0475  0.4738  1.7186
  630SOL     OW 1930   2.821   0.611   0.256 -0.2662 -0.3045 -0.1888
  630SOL    HW1 1931   2.822   0.555   0.178 -1.1236 -0.2218 -0.2670
  630SOL    HW2 1932   2.817   0.549   0.329  0.4457 -0.3791 -0.1974
  631SOL     OW 1933   3.142   0.427   0.134 -0.1851  0.1561  0.2836
  631SOL    HW1 1934   3.223   0.401   0.176  0.7595  0.2496 -1.3975
  631SOL    HW2 1935   3.095   0.345   0.118  1.1207 -0.2923 -1.6878
  632SOL     OW 1936   5.697   2.374   2.473 -0.3744  0.0070 -0.2651
  632SOL    HW1 1937   5.751   2.322   2.532 -2.0108 -3.2769 -1.4668
  632SOL    HW2 1938   5.661   2.443   2.528  1.3766 -0.4606  1.5686
  633SOL     OW 1939   4.741   2.276   2.722  0.1766 -0.1568  0.0391
  633SOL    HW1 1940   4.724   2.237   2.637 -0.8582  0.5548 -0.1016
  633SOL    HW2 1941   4.654   2.298   2.756  0.6380  0.5865  0.7860
  634SOL     OW 1942   5.373   2.055   1.808  0.6012  0.7937 -0.1106
  634SOL    HW1 1943   5.438   2.022   1.870 -0.2944 -1.3801 -0.2189
  634SOL    HW2 1944   5.391   2.007   1.727  0.5921  2.2266 -0.9863
  635SOL     OW 1945   5.503   3.572   2.538 -0.4184  0.0704 -0.0607
  635SOL    HW1 1946   5.598   3.581   2.530 -0.4300 -0.5154 -0.9393
  635SOL    HW2 1947   5.472   3.662   2.550  0.2194  0.2943 -0.0352
  636SOL     OW 1948   4.941   2.189   2.876 -0.1939  0.2398  0.3546
  636SOL    HW1 1949   4.915   2.111   2.926  0.1812 -0.0394  0.1257
  636SOL    HW2 1950   4.868   2.207   2.818 -0.3420  0.1411  0.5103
  637SOL     OW 1951   5.391   3.825   2.575 -0.1914  0.0759 -0.3463
  637SOL    HW1 1952   5.398   3.865   2.488  1.4146 -1.5345 -1.0125
  637SOL    HW2 1953   5.417   3.895   2.636 -3.4327  1.9432 -0.8543
  638SOL     OW 1954   2.394   1.721   0.142 -0.3317 -0.4775 -0.3404
  638SOL    HW1 1955   2.346   1.649   0.181 -0.2472 -0.5982 -0.4586
  638SOL    HW2 1956   2.475   1.727   0.193  0.3867 -1.4941 -1.3266
  639SOL     OW 1957   5.847   2.895   2.774  0.1027 -0.5712 -0.4896
  639SOL    HW1 1958   5.904   2.892   2.697  1.6525  1.6563  0.4599
  639SOL    HW2 1959   5.819   2.986   2.780 -0.3490 -0.7922  1.3285
  640SOL     OW 1960   3.729   1.236   0.449 -0.2296 -0.4354  0.1177
  640SOL    HW1 1961   3.645   1.196   0.472 -0.6513 -0.1656 -0.9112
  640SOL    HW2 1962   3.741   1.216   0.356  0.3453  0.4212 -0.0086
  641SOL     OW 1963   5.036   2.559   2.177  0.1584  0.9367  0.3457
  641SOL    HW1 1964   5.072   2.535   2.263  0.6675  0.1687 -0.0666
  641SOL    HW2 1965   5.072   2.494   2.117 -1.7303  0.2515 -0.1352
  642SOL     OW 1966   5.877   2.495   2.293 -0.1564  0.5297 -0.5541
  642SOL    HW1 1967   5.802   2.448   2.327  0.8208 -1.5309 -1.0934
  642SOL    HW2 1968   5.952   2.458   2.339  0.7535  0.7428 -1.8023
  643SOL     OW 1969   5.705   3.703   2.240  0.5959  0.1075 -0.2906
  643SOL    HW1 1970   5.712   3.625   2.185 -2.2193 -1.8413  1.8132
  643SOL    HW2 1971   5.741   3.678   2.324 -0.4023  1.0140  0.4515
  644SOL     OW 1972   2.139   3.095   2.043 -0.1096  0.3371  0.2388
  644SOL    HW1 1973   2.186   3.012   2.043 -0.2347  0.2449  2.0598
  644SOL    HW2 1974   2.051   3.072   2.014 -0.7717 -0.5993  2.7385
  645SOL     OW 1975   4.855   3.593   2.454 -0.4845  0.2886 -0.2576
  645SOL    HW1 1976   4.763   3.589   2.429 -1.6307 -1.7941  3.5273
  645SOL    HW2 1977   4.886   3.503   2.443  1.2025  0.9706 -1.5450
  646SOL     OW 1978   5.958   1.759   2.345 -0.1870  0.4755  0.1352
  646SOL    HW1 1979   5.939   1.704   2.269  1.2271 -1.5897  1.1517
  646SOL    HW2 1980   6.023   1.822   2.314  0.3099 -0.2899 -0.4334
  647SOL     OW 1981   4.636   3.308   2.957 -0.3028  0.5859  0.0732
  647SOL    HW1 1982   4.659   3.253   3.032  2.5321  2.9637  1.1667
  647SOL    HW2 1983   4.664   3.257   2.881 -2.0693 -1.3354  0.5925
  648SOL     OW 1984   5.163   3.779   2.716 -0.1140  0.4132 -0.3648
  648SOL    HW1 1985   5.113   3.717   2.663  0.4147 -0.0176 -0.3533
  648SOL    HW2 1986   5.248   3.785   2.673  0.5576 -0.4459  0.8013
  649SOL     OW 1987   5.362   2.513   2.155  0.4253 -0.0856 -0.4764
  649SOL    HW1 1988   5.320   2.561   2.084  1.6886 -0.8721 -1.8292
  649SOL    HW2 1989   5.355   2.421   2.128  1.5973 -0.3353  0.0295
  650SOL     OW 1990   4.979   1.859   1.999  0.1007  0.4670 -0.1260
  650SOL    HW1 1991   5.009   1.927   1.939  0.0081  1.8055  1.2741
  650SOL    HW2 1992   5.027   1.876   2.080  0.3847 -1.4240  0.1443
  651SOL     OW 1993   3.116   0.947   0.108  0.4842  0.2088 -1.5457
  651SOL    HW1 1994   3.056   0.945   0.033  0.8112  0.8740 -1.8321
  651SOL    HW2 1995   3.100   1.032   0.149 -1.8948 -1.2649  0.9941
  652SOL     OW 1996   3.402   0.263   0.231  0.3173  0.1070 -0.0599
  652SOL    HW1 1997   3.375   0.214   0.310 -2.0729 -0.5843 -1.2094
  652SOL    HW2 1998   3.490   0.295   0.252 -0.0864 -0.3379  2.7451
  653SOL     OW 1999   5.093   3.477   2.687 -0.4325 -0.5934 -0.0364
  653SOL    HW1 2000   5.126   3.412   2.748 -0.6971 -0.0132  0.7394
  653SOL    HW2 2001   5.100   3.435   2.601  2.2862 -0.5410  0.0740
  654SOL     OW 2002   5.408   2.175   2.469  0.1106 -1.0902 -0.3098
  654SOL    HW1 2003   5.385   2.084   2.485  0.5001 -1.2746 -0.8029
  654SOL    HW2 2004   5.500   2.182   2.492  0.2374 -0.9623 -0.8469
  655SOL     OW 2005   5.138   6.057   2.545 -0.0982 -0.5993 -0.0910
  655SOL    HW1 2006   5.086   5.986   2.507  0.1752 -0.8674  0.0322
  655SOL    HW2 2007   5.080   6.133   2.543 -0.1179 -0.6330 -0.9642
  656SOL     OW 2008   1.914   2.951   1.935  0.2146  0.2922  0.1387
  656SOL    HW1 2009   1.846   2.970   1.999  0.8975  1.5524  0.5327
  656SOL    HW2 2010   1.911   2.856   1.923 -0.8198  0.2000  1.0156
  657SOL     OW 2011   4.565   2.010   1.833  0.3163  0.4713  0.1013
  657SOL    HW1 2012   4.503   2.038   1.900 -0.4360 -0.5734 -0.1355
  657SOL    HW2 2013   4.623   1.949   1.878 -0.0311 -0.0323 -0.1204
  658SOL     OW 2014   5.516   2.066   2.060 -0.1929  0.0528  0.0002
  658SOL    HW1 2015   5.469   2.142   2.095  1.0361  0.8806 -0.0436
  658SOL    HW2 2016   5.600   2.102   2.031  1.6304 -1.7451  2.5739
  659SOL     OW 2017   3.283   0.763   0.492 -0.4084  0.1451  0.0254
  659SOL    HW1 2018   3.377   0.763   0.475 -0.3299 -2.1237  0.2625
  659SOL    HW2 2019   3.243   0.762   0.405 -0.2421  0.8856 -0.0710
  660SOL     OW 2020   5.793   3.649   2.491  0.3982  0.0737  0.4686
  660SOL    HW1 2021   5.882   3.628   2.519  1.3293  1.8278 -0.9230
  660SOL    HW2 2022   5.769   3.727   2.541  0.3922  0.6743 -0.4314
  661SOL     OW 2023   4.737   2.707   2.445 -0.0253 -0.2586  0.0725
  661SOL    HW1 2024   4.786   2.767   2.501  1.8353 -0.7563 -0.9168
  661SOL    HW2 2025   4.710   2.760   2.371  2.0964 -0.6436 -1.0748
  662SOL     OW 2026   6.099   3.823   2.815 -0.1693  0.0591  0.2958
  662SOL    HW1 2027   6.013   3.856   2.841 -1.5741 -1.1661 -2.4107
  662SOL    HW2 2028   6.155   3.901   2.814 -1.1312  0.8580  2.2642
  663SOL     OW 2029   5.318   2.598   1.631 -0.4296  0.2258  0.1646
  663SOL    HW1 2030   5.233   2.616   1.590 -1.1240 -1.9453  0.5255
  663SOL    HW2 2031   5.372   2.674   1.610 -2.0285  1.0089 -1.2746
  664SOL     OW 2032   2.747   0.256   0.300 -0.2765  0.4680  0.1799
  664SOL    HW1 2033   2.670   0.313   0.298 -1.0135 -0.4774  0.8130
  664SOL    HW2 2034   2.713   0.169   0.278  0.4140 -0.1564  1.5128
  665SOL     OW 2035   2.951   4.305   0.040 -0.0038 -0.2358 -0.0580
  665SOL    HW1 2036   2.863   4.302   0.004  0.7214  0.0998 -1.9798
  665SOL    HW2 2037   3.000   4.240  -0.010  1.3368  1.0836 -0.5450
  666SOL     OW 2038   5.291   2.211   2.220  0.2028  0.0592  0.0883
  666SOL    HW1 2039   5.337   2.198   2.303 -0.3376 -0.8242  0.2624
  666SOL    HW2 2040   5.207   2.249   2.245 -0.3522 -1.1189  0.0416
  667SOL     OW 2041   5.629   1.953   2.333 -0.4766 -0.2198 -0.6907
  667SOL    HW1 2042   5.671   1.994   2.409  1.1671 -0.6957 -1.2931
  667SOL    HW2 2043   5.581   2.024   2.291  0.0608  0.4579 -0.1826
  668SOL     OW 2044   5.495   3.320   2.627 -0.1647  0.6391  0.0088
  668SOL    HW1 2045   5.523   3.262   2.556  0.9178 -0.9553  1.6314
  668SOL    HW2 2046   5.510   3.408   2.593  3.3886 -0.0502 -0.6636
  669SOL     OW 2047   5.553   2.617   2.945  0.3388 -0.5775 -0.0851
  669SOL    HW1 2048   5.550   2.704   2.985 -0.0980  0.3831 -2.1037
  669SOL    HW2 2049   5.631   2.618   2.890  0.3152 -1.4839 -0.1623
  670SOL     OW 2050   1.775   2.198   2.157 -0.3656 -0.1595 -0.5028
  670SOL    HW1 2051   1.697   2.237   2.195 -0.2344 -1.3634  1.1336
  670SOL    HW2 2052   1.750   2.106   2.141  1.3236 -1.2502  2.3168
  671SOL     OW 2053   5.071   3.278   2.082  0.2177  0.0565 -0.2944
  671SOL    HW1 2054   5.028   3.272   1.997  0.6811  0.4865 -0.5689
  671SOL    HW2 2055   5.164   3.261   2.063 -0.0228 -2.7435  0.5436
  672SOL     OW 2056   5.964   2.955   2.492  0.2601 -0.7953  0.8161
  672SOL    HW1 2057   5.934   3.045   2.478  0.6670 -0.4869  1.8469
  672SOL    HW2 2058   6.058   2.958   2.475  0.1201 -1.2449 -0.0860
  673SOL     OW 2059   1.376   2.668   1.735 -0.4503  0.0987 -0.1638
  673SOL    HW1 2060   1.326   2.629   1.806  0.3892 -0.9457 -0.1305
  673SOL    HW2 2061   1.441   2.602   1.711  0.9767  1.4334 -0.1602
  674SOL     OW 2062   4.720   1.824   1.968  0.0484 -0.2214  0.2247
  674SOL    HW1 2063   4.716   1.728   1.966  3.0078 -0.4702  1.0620
  674SOL    HW2 2064   4.813   1.844   1.956 -0.5290  2.5946 -0.2634
  675SOL     OW 2065   3.412   1.218   0.051  0.6207  0.2417  0.6017
  675SOL    HW1 2066   3.364   1.250   0.127  2.0354  1.4452  1.0218
  675SOL    HW2 2067   3.380   1.273  -0.021 -1.1856 -1.3134  0.1335
  676SOL     OW 2068   5.747   3.141   2.770 -0.1114 -0.0399  0.8962
  676SOL    HW1 2069   5.739   3.231   2.804  0.9694  0.1938  0.5700
  676SOL    HW2 2070   5.691   3.139   2.693  2.2868  1.3927 -1.0572
  677SOL     OW 2071   6.019   3.142   2.717 -0.2425  0.4950  0.1377
  677SOL    HW1 2072   6.046   3.124   2.807 -0.9195 -1.5019 -0.0051
  677SOL    HW2 2073   5.925   3.124   2.716 -0.0418 -0.7063 -1.1873
  678SOL     OW 2074   3.121   4.005   0.239  0.8287 -0.4528  0.5226
  678SOL    HW1 2075   3.182   4.051   0.297  0.7745 -1.3624  1.3402
  678SOL    HW2 2076   3.177   3.963   0.173  1.2509 -2.1849  1.9006
  679SOL     OW 2077   5.460   2.748   2.297  0.1289  0.0799 -0.3877
  679SOL    HW1 2078   5.508   2.763   2.216  1.3762 -2.4299 -0.2188
  679SOL    HW2 2079   5.412   2.666   2.282 -2.3705  1.3136  0.2728
  680SOL     OW 2080   2.472   0.357   0.104 -0.1010  0.3561  0.2901
  680SOL    HW1 2081   2.394   0.302   0.102  0.1112  0.0528  0.3426
  680SOL    HW2 2082   2.453   0.422   0.172 -1.2248  1.6673 -1.1866
  681SOL     OW 2083   5.250   2.659   2.941  0.1464 -0.2115 -0.0103
  681SOL    HW1 2084   5.284   2.658   3.030 -0.7690 -2.3354  0.3761
  681SOL    HW2 2085   5.327   2.666   2.885  0.9369 -1.2889  0.9150
  682SOL     OW 2086   4.752   3.553   2.971  0.4311  0.4831 -0.0298
  682SOL    HW1 2087   4.777   3.585   2.884 -1.4677  1.0469 -0.4122
  682SOL    HW2 2088   4.687   3.485   2.954  1.4721 -0.7826  0.9216
  683SOL     OW 2089   4.969   2.832   2.176 -0.3975  0.0780 -0.0287
  683SOL    HW1 2090   5.029   2.879   2.233  0.4640  0.8772 -1.5330
  683SOL    HW2 2091   5.001   2.741   2.176 -0.4761  0.0461  0.8166
  684SOL     OW 2092   5.048   2.299   2.341 -0.1588  0.4701  0.1555
  684SOL    HW1 2093   5.076   2.325   2.429 -0.7163 -0.4321  0.6235
  684SOL    HW2 2094   4.953   2.306   2.344 -0.2199 -0.1788 -0.1635
  685SOL     OW 2095   5.864   3.233   2.457  0.4950 -0.3547  0.1794
  685SOL    HW1 2096   5.778   3.237   2.413  0.7424 -0.5909 -0.3323
  685SOL    HW2 2097   5.851   3.281   2.539  0.2566  0.8359 -0.5396
  686SOL     OW 2098   2.066   3.549   2.599  0.6070 -0.4513  0.3539
  686SOL    HW1 2099   2.143   3.517   2.553 -0.5447 -0.5537 -1.6091
  686SOL    HW2 2100   2.001   3.480   2.588 -0.4105  0.5014  0.2065
  687SOL     OW 2101   1.625   2.594   2.052 -0.6279 -0.2674  0.3283
  687SOL    HW1 2102   1.605   2.565   2.140 -0.8439  0.0026  0.3719
  687SOL    HW2 2103   1.546   2.642   2.024 -0.2840  0.2698  0.2643
  688SOL     OW 2104   2.706   1.501   0.121  0.2569 -0.4146 -0.1719
  688SOL    HW1 2105   2.734   1.587   0.090  2.6276 -0.6698  0.9751
  688SOL    HW2 2106   2.675   1.455   0.043  1.5823  0.5395 -1.3046
  689SOL     OW 2107   5.074   2.937   2.537  0.3137 -0.2119 -0.4515
  689SOL    HW1 2108   5.141   2.989   2.582  0.1445  0.7233 -1.2478
  689SOL    HW2 2109   5.113   2.916   2.453  0.3867 -1.4209 -0.1328
  690SOL     OW 2110   5.582   2.912   2.918 -0.2312 -0.9244 -0.4533
  690SOL    HW1 2111   5.569   2.964   2.998  0.7068 -0.1231 -0.8053
  690SOL    HW2 2112   5.654   2.955   2.873 -1.7248 -0.4190 -2.5067
  691SOL     OW 2113   5.557   2.486   1.868 -0.0523  0.1478 -0.2165
  691SOL    HW1 2114   5.477   2.440   1.891  0.1498  0.4655  1.2228
  691SOL    HW2 2115   5.615   2.418   1.833 -0.4252 -0.3640  0.1454
  692SOL     OW 2116   2.648   4.326   0.180  0.2979  0.2561  0.1830
  692SOL    HW1 2117   2.569   4.377   0.163 -0.6084 -1.1855 -0.1016
  692SOL    HW2 2118   2.655   4.266   0.106  1.0587 -0.3692  0.7408
  693SOL     OW 2119   1.811   1.095   0.430  0.4211 -0.6444  0.0720
  693SOL    HW1 2120   1.847   1.038   0.362  0.7969 -0.7766  0.3812
  693SOL    HW2 2121   1.862   1.176   0.424  1.2201 -1.0691  0.9399
  694SOL     OW 2122   5.132   2.437   2.545  0.5063 -0.4744 -0.0598
  694SOL    HW1 2123   5.089   2.467   2.625 -0.1360 -1.7285  0.0943
  694SOL    HW2 2124   5.215   2.485   2.543 -1.1700  2.6048 -0.7872
  695SOL     OW 2125   4.323   6.137   2.595  0.4665 -0.1194  0.6264
  695SOL    HW1 2126   4.367   6.216   2.626  0.3030  1.3017 -2.4475
  695SOL    HW2 2127   4.258   6.168   2.533 -0.2222 -2.6452 -0.0282
  696SOL     OW 2128   1.528   2.347   1.812 -0.0537 -0.0836  0.3110
  696SOL    HW1 2129   1.508   2.384   1.726  0.4392 -1.4297 -0.4078
  696SOL    HW2 2130   1.620   2.369   1.827 -0.5862  1.6866  1.3330
  697SOL     OW 2131   5.240   2.304   2.842  1.1211 -0.8067  0.2720
  697SOL    HW1 2132   5.167   2.319   2.781  0.5443 -1.2627  0.8287
  697SOL    HW2 2133   5.271   2.391   2.865  0.1941 -0.5741  0.6753
  698SOL     OW 2134   1.495   2.052   1.819  0.1430  0.0578 -0.2969
  698SOL    HW1 2135   1.536   1.988   1.877 -0.8604 -0.4231 -0.0880
  698SOL    HW2 2136   1.482   2.129   1.873  1.2883  0.4399 -0.5281
  699SOL     OW 2137   1.209   2.750   1.538  0.1348  0.1882  0.1408
  699SOL    HW1 2138   1.248   2.733   1.624  1.2591 -2.7660 -0.8554
  699SOL    HW2 2139   1.252   2.830   1.507  0.9740  0.3161  1.5629
  700SOL     OW 2140   5.313   3.302   2.826 -0.2586 -0.4862 -0.2152
  700SOL    HW1 2141   5.391   3.299   2.770  1.2278  0.6672  1.6810
  700SOL    HW2 2142   5.268   3.220   2.807  0.4434 -0.4038 -2.6603
  701SOL     OW 2143   4.920   2.512   2.742  0.5334 -0.3628  0.4488
  701SOL    HW1 2144   4.859   2.463   2.687  0.5257  0.5524 -0.3950
  701SOL    HW2 2145   4.913   2.472   2.828 -0.1108 -1.2635 -0.0070
  702SOL     OW 2146   4.607   6.474   3.021 -0.3926  0.3287  0.4514
  702SOL    HW1 2147   4.558   6.555   3.033 -0.1123  0.5120  0.3844
  702SOL    HW2 2148   4.542   6.405   3.029 -0.5088  0.5230  1.2640
  703SOL     OW 2149   3.206   4.501   0.429  0.2885 -0.4612 -0.3551
  703SOL    HW1 2150   3.190   4.410   0.458 -1.5239  0.3427  1.4173
  703SOL    HW2 2151   3.144   4.514   0.357 -2.4060  0.4740  1.9412
  704SOL     OW 2152   4.569   2.950   2.739  0.6366 -0.4127  0.2733
  704SOL    HW1 2153   4.627   2.994   2.678  0.1819  1.4313  1.1047
  704SOL    HW2 2154   4.558   2.862   2.703 -0.3415  0.8319 -2.8334
  705SOL     OW 2155   4.817   3.931   2.763  0.2250 -0.6656 -0.4429
  705SOL    HW1 2156   4.788   3.943   2.853  2.4392  1.6994  0.0705
  705SOL    HW2 2157   4.844   3.839   2.759  0.1430 -0.7997  1.3370
  706SOL     OW 2158   5.132   3.653   2.964  0.2376 -0.5260  0.4001
  706SOL    HW1 2159   5.077   3.719   3.006 -1.9910 -2.0912  0.0870
  706SOL    HW2 2160   5.142   3.683   2.874 -0.2976 -0.3394  0.4017
  707SOL     OW 2161   2.839   0.541  -0.024  0.0981 -0.1343 -0.2410
  707SOL    HW1 2162   2.787   0.464  -0.047  0.9346 -0.0450 -2.6890
  707SOL    HW2 2163   2.926   0.522  -0.060  0.5617  1.5590 -0.0732
  708SOL     OW 2164   3.978   2.472   2.917  0.1539 -0.0027 -0.4062
  708SOL    HW1 2165   3.975   2.380   2.943 -0.4959  0.1053 -0.0757
  708SOL    HW2 2166   3.918   2.479   2.843  0.3086  0.1234 -0.5203
  709SOL     OW 2167   5.068   2.039   1.793  0.2694 -0.2845  0.0838
  709SOL    HW1 2168   5.068   2.094   1.715  0.0579 -2.5960 -1.6665
  709SOL    HW2 2169   5.161   2.021   1.810  0.3091  0.1111  0.2903
  710SOL     OW 2170   5.807   2.621   2.808 -0.0729  0.1392  0.2976
  710SOL    HW1 2171   5.887   2.569   2.809 -0.4770 -0.5514 -1.0203
  710SOL    HW2 2172   5.836   2.711   2.793  0.4283 -0.1991 -0.8714
  711SOL     OW 2173   4.882   2.450   3.034  0.1633  0.1804 -0.2100
  711SOL    HW1 2174   4.811   2.441   3.098  2.0885 -0.0857  2.0097
  711SOL    HW2 2175   4.906   2.361   3.011  0.3715  0.2527 -0.2722
  712SOL     OW 2176   3.214   1.380   0.365 -0.1826 -0.0075 -0.0663
  712SOL    HW1 2177   3.120   1.391   0.347 -0.1855 -0.1200 -0.1235
  712SOL    HW2 2178   3.225   1.285   0.376 -0.0838  0.0098 -0.0149
  713SOL     OW 2179   4.910   2.508   1.890 -0.6989  1.2548  0.1320
  713SOL    HW1 2180   4.819   2.479   1.879  0.0375 -1.7936  1.0863
  713SOL    HW2 2181   4.904   2.583   1.948 -2.5984  0.6935  0.7322
  714SOL     OW 2182   4.007   3.007   3.017 -0.4059 -0.1159 -0.3816
  714SOL    HW1 2183   4.008   3.075   2.950  2.4087  0.1569 -0.2003
  714SOL    HW2 2184   4.009   2.925   2.968 -0.3245  0.0328 -0.6307
  715SOL     OW 2185   3.616   0.936   0.164  0.1427  0.0849  0.5042
  715SOL    HW1 2186   3.536   0.935   0.112  0.4744 -2.6794 -0.1244
  715SOL    HW2 2187   3.587   0.933   0.255 -0.4229  3.7906  0.6106
  716SOL     OW 2188   1.475   2.921   2.062  0.1292  0.1161 -0.1423
  716SOL    HW1 2189   1.482   2.924   1.967  0.3568 -0.6624 -0.1584
  716SOL    HW2 2190   1.429   2.839   2.080  1.6901 -0.6530  0.4898
  717SOL     OW 2191   3.971   1.273   0.228 -0.1241  0.1716 -0.6020
  717SOL    HW1 2192   3.991   1.197   0.173 -0.5837  0.3272 -0.9917
  717SOL    HW2 2193   3.901   1.319   0.181 -0.1945  0.5652 -0.1210
  718SOL     OW 2194   5.804   3.437   2.715  0.4997 -0.3483 -0.7287
  718SOL    HW1 2195   5.818   3.491   2.793 -1.7549  0.0808 -0.5339
  718SOL    HW2 2196   5.759   3.496   2.654 -2.2068 -1.9740 -0.4422
  719SOL     OW 2197   4.396   2.795   2.978  0.3899 -0.3749  0.3570
  719SOL    HW1 2198   4.356   2.718   3.019 -0.8397 -0.7569 -1.4841
  719SOL    HW2 2199   4.471   2.761   2.930  0.1462 -0.3400 -0.0455
  720SOL     OW 2200   1.900   1.859   2.371 -0.2090  0.4909 -0.3128
  720SOL    HW1 2201   1.959   1.827   2.302  1.1523  1.5716  0.3064
  720SOL    HW2 2202   1.876   1.781   2.420 -2.1476 -0.5029 -2.6500
  721SOL     OW 2203   1.738   3.562   1.742  0.1864  0.5184 -0.2580
  721SOL    HW1 2204   1.797   3.498   1.781 -0.7613 -0.4825 -0.4308
  721SOL    HW2 2205   1.702   3.610   1.817  1.1778  1.1358 -0.1486
  722SOL     OW 2206   5.413   2.817   2.714 -0.3238  0.4559 -0.7720
  722SOL    HW1 2207   5.450   2.865   2.640  2.1770 -1.0268 -0.6314
  722SOL    HW2 2208   5.467   2.843   2.788 -1.2224  0.1121  0.0132
  723SOL     OW 2209   2.198   1.040   0.236  0.7157  0.0519  0.4073
  723SOL    HW1 2210   2.167   1.120   0.193  1.8732  0.5194  0.4196
  723SOL    HW2 2211   2.293   1.045   0.230  0.8722 -0.4343  2.0213
  724SOL     OW 2212   5.386   3.389   2.350 -0.0152  0.5741  0.0590
  724SOL    HW1 2213   5.419   3.417   2.435  0.6926 -1.1946  0.4191
  724SOL    HW2 2214   5.322   3.456   2.326  1.9911  2.7828  0.5030
  725SOL     OW 2215   3.988   1.081   0.440  0.3373 -0.3607 -0.6307
  725SOL    HW1 2216   3.929   1.125   0.379 -1.0492  1.5471  1.8901
  725SOL    HW2 2217   4.075   1.096   0.403 -0.4939 -0.3120 -2.6991
  726SOL     OW 2218   6.146   2.262   2.846  0.2383  0.3490  0.1255
  726SOL    HW1 2219   6.192   2.262   2.930 -0.1507  0.4813  0.3386
  726SOL    HW2 2220   6.114   2.172   2.837  0.8334  0.1593 -0.1923
  727SOL     OW 2221   4.618   2.162   2.476  0.5716 -0.0634  0.5645
  727SOL    HW1 2222   4.640   2.103   2.404  2.9123  1.1514  0.1940
  727SOL    HW2 2223   4.538   2.206   2.446  0.1994 -1.2152 -0.2400
  728SOL     OW 2224   1.695   3.010   1.582 -0.1284  0.2725 -0.1543
  728SOL    HW1 2225   1.679   3.086   1.527 -0.7774  0.6460  0.5386
  728SOL    HW2 2226   1.707   3.045   1.670  2.5805 -0.1516 -0.2626
  729SOL     OW 2227   4.726   2.889   2.949 -0.3478 -0.3432  0.2394
  729SOL    HW1 2228   4.818   2.896   2.922 -0.0914 -0.8630  0.9445
  729SOL    HW2 2229   4.677   2.932   2.879  0.4991  0.8600  0.3486
  730SOL     OW 2230   5.651   2.680   2.039 -0.2894  0.1464  0.0356
  730SOL    HW1 2231   5.569   2.726   2.020  0.3129  0.4976 -1.8867
  730SOL    HW2 2232   5.639   2.594   1.999  0.3067  0.2243 -0.3158
  731SOL     OW 2233   1.898   3.163   1.763  0.8594 -0.2596 -0.3959
  731SOL    HW1 2234   1.890   3.089   1.823  0.3185  1.2939  1.5424
  731SOL    HW2 2235   1.876   3.240   1.816 -1.2340  1.0827 -2.9320
  732SOL     OW 2236   1.897   0.852   0.245 -0.1073  0.4664 -0.1236
  732SOL    HW1 2237   1.969   0.915   0.235  0.7083 -0.5785 -1.0278
  732SOL    HW2 2238   1.863   0.840   0.157  0.3519 -1.0317 -0.1222
  733SOL     OW 2239   6.166   2.844   2.921  0.4585  0.1483  0.3261
  733SOL    HW1 2240   6.134   2.925   2.960  0.0388  1.1271 -1.8963
  733SOL    HW2 2241   6.120   2.774   2.969  1.0221  1.1687  2.4450
  734SOL     OW 2242   3.374   0.960   0.037  0.2481 -0.3483  0.8290
  734SOL    HW1 2243   3.403   1.052   0.032  1.4624 -0.7778 -1.9064
  734SOL    HW2 2244   3.281   0.965   0.060  0.2500  1.5667  0.5917
  735SOL     OW 2245   5.419   2.119   2.942  0.3349 -0.6474 -0.5815
  735SOL    HW1 2246   5.355   2.169   2.891  0.2478 -0.6694 -0.4945
  735SOL    HW2 2247   5.476   2.185   2.982  1.3347 -0.6746 -1.9118
  736SOL     OW 2248   5.244   3.589   2.246 -0.8813 -0.2901  0.2007
  736SOL    HW1 2249   5.286   3.674   2.232 -1.7629  0.0907 -0.2542
  736SOL    HW2 2250   5.174   3.586   2.181  0.2610 -2.1629 -1.0386
  737SOL     OW 2251   3.860   0.187   0.101 -0.1185  0.3723  0.1105
  737SOL    HW1 2252   3.940   0.142   0.073  0.5015  1.3229  0.3007
  737SOL    HW2 2253   3.793   0.158   0.039 -0.2143 -2.2083  1.2776
  738SOL     OW 2254   4.839   3.214   2.181 -0.0606  0.1250 -0.3925
  738SOL    HW1 2255   4.927   3.233   2.148 -0.1726  0.4819 -0.4979
  738SOL    HW2 2256   4.802   3.300   2.199  0.1266 -0.0678  1.0349
  739SOL     OW 2257   3.009   0.171   0.219  0.3274 -0.0249  0.0259
  739SOL    HW1 2258   3.009   0.097   0.159 -0.6368  1.5811 -2.0675
  739SOL    HW2 2259   2.920   0.172   0.255  0.0417  0.6344 -0.6720
  740SOL     OW 2260   4.660   2.405   1.853  0.9683  0.1666 -0.1833
  740SOL    HW1 2261   4.576   2.367   1.829  1.5442 -0.6928 -0.9155
  740SOL    HW2 2262   4.661   2.403   1.949 -0.1167  0.8443 -0.1407
  741SOL     OW 2263   3.624   0.584   0.315 -0.4150  0.1558  0.2913
  741SOL    HW1 2264   3.713   0.550   0.324 -0.2566  1.0600  2.9105
  741SOL    HW2 2265   3.607   0.582   0.221  2.2684 -0.2458 -0.2563
  742SOL     OW 2266   4.089   1.921   2.512  0.1994  0.2756 -0.7310
  742SOL    HW1 2267   4.090   1.974   2.433 -0.7604 -0.1550 -1.0481
  742SOL    HW2 2268   4.003   1.879   2.512 -0.1109  0.8201  0.9151
  743SOL     OW 2269   5.592   3.186   2.401 -1.1722 -0.0679 -0.1797
  743SOL    HW1 2270   5.598   3.183   2.305 -0.9184 -0.5425 -0.1518
  743SOL    HW2 2271   5.577   3.094   2.426  0.1165 -0.1481  0.3290
  744SOL     OW 2272   2.376   0.785   0.090 -0.2947  0.6987 -0.3219
  744SOL    HW1 2273   2.401   0.718   0.026  0.7719 -0.5285  1.2679
  744SOL    HW2 2274   2.290   0.816   0.061  0.5791  0.9566 -2.8663
  745SOL     OW 2275   3.797   1.355   0.045  0.1226 -0.1435  0.5869
  745SOL    HW1 2276   3.841   1.375  -0.038 -0.2195 -0.2244  0.3838
  745SOL    HW2 2277   3.706   1.336   0.020 -0.1500  0.5045  1.0543
  746SOL     OW 2278   3.879   0.453   0.004 -0.3188 -0.4596 -0.1460
  746SOL    HW1 2279   3.837   0.379   0.047 -0.6657  0.1834  0.6582
  746SOL    HW2 2280   3.955   0.416  -0.040 -0.2037 -1.2146  0.6538
  747SOL     OW 2281   5.723   2.246   2.030 -0.2084 -0.4360  0.2890
  747SOL    HW1 2282   5.696   2.314   2.092  1.2113 -0.2877  0.7740
  747SOL    HW2 2283   5.778   2.292   1.966  1.0058 -1.1545  0.7848
  748SOL     OW 2284   5.344   2.604   2.565  0.9477  0.4220 -0.0063
  748SOL    HW1 2285   5.353   2.670   2.634  0.7459  1.3382 -0.8416
  748SOL    HW2 2286   5.433   2.585   2.538  1.0855 -0.5283  1.0243
  749SOL     OW 2287   4.162   0.652   0.409 -0.1657  0.0963  0.7650
  749SOL    HW1 2288   4.075   0.647   0.368  0.0898  1.1819  0.0508
  749SOL    HW2 2289   4.153   0.600   0.489 -0.4382 -2.8017 -1.0009
  750SOL     OW 2290   5.689   3.166   2.101 -0.2384 -0.7793 -0.2412
  750SOL    HW1 2291   5.737   3.086   2.082  0.7331 -0.1268 -0.6116
  750SOL    HW2 2292   5.619   3.168   2.036  0.1595 -0.9740 -0.6786
  751SOL     OW 2293   5.168   3.055   2.785 -0.3800  0.1643  0.0816
  751SOL    HW1 2294   5.084   3.056   2.832  0.4785  3.4343  1.8303
  751SOL    HW2 2295   5.220   2.989   2.831 -1.3592 -0.5788  0.1565
  752SOL     OW 2296   5.415   2.782   1.956 -0.2229  0.5112 -0.0579
  752SOL    HW1 2297   5.421   2.848   1.886  1.8393 -1.0493 -1.4635
  752SOL    HW2 2298   5.340   2.728   1.930  0.3892  0.0800 -0.9762
  753SOL     OW 2299   1.906   2.985   2.474 -0.7633  0.0044 -0.3313
  753SOL    HW1 2300   1.963   3.003   2.549  0.7736  0.3148 -1.4984
  753SOL    HW2 2301   1.960   2.933   2.415 -1.8251 -0.0041 -1.3387
  754SOL     OW 2302   4.853   3.106   2.472 -0.0969  0.2315  0.6371
  754SOL    HW1 2303   4.837   3.115   2.378  2.2450  2.1647  0.3201
  754SOL    HW2 2304   4.909   3.028   2.479 -0.0810  0.2188  0.3979
  755SOL     OW 2305   4.094   0.031   0.059  0.3155 -0.4662  0.2064
  755SOL    HW1 2306   4.180   0.074   0.058  0.8004 -1.3838  0.8182
  755SOL    HW2 2307   4.099  -0.031   0.132 -0.2007 -1.8860 -0.9149
  756SOL     OW 2308   4.974   2.024   2.623  0.4615 -0.0110  0.0353
  756SOL    HW1 2309   5.051   2.032   2.680  1.5248 -0.9281 -1.2065
  756SOL    HW2 2310   4.998   2.073   2.544 -1.0130  1.2953  0.3651
  757SOL     OW 2311   2.199   2.991   2.637  0.4066 -0.3915 -1.0020
  757SOL    HW1 2312   2.234   2.913   2.594 -1.3972 -2.3349  0.8095
  757SOL    HW2 2313   2.176   2.963   2.725 -0.1421  2.2690 -0.1799
  758SOL     OW 2314   2.830   4.146   0.367 -0.1799 -0.3654  0.0713
  758SOL    HW1 2315   2.807   4.203   0.293 -0.3251 -0.7096 -0.1471
  758SOL    HW2 2316   2.915   4.110   0.343 -0.5493 -1.0305 -0.2523
  759SOL     OW 2317   4.979   3.595   2.147 -0.3742 -0.1132 -0.2212
  759SOL    HW1 2318   4.950   3.601   2.056 -0.9232  0.2419 -0.0220
  759SOL    HW2 2319   4.915   3.539   2.190  0.0822 -0.5760 -0.1290
  760SOL     OW 2320   5.846   2.283   2.955  0.1650 -0.2849 -0.2126
  760SOL    HW1 2321   5.763   2.309   2.994  0.1186  0.2080 -0.6336
  760SOL    HW2 2322   5.832   2.290   2.860  0.1293 -1.9016 -0.3530
  761SOL     OW 2323   5.484   5.929   3.037 -0.0543 -0.1742  0.3463
  761SOL    HW1 2324   5.402   5.902   2.994  0.3132  0.3140 -0.6842
  761SOL    HW2 2325   5.536   5.967   2.967  1.1012 -0.5530  0.9778
  762SOL     OW 2326   5.258   3.148   2.302  1.1367 -0.0163 -0.2739
  762SOL    HW1 2327   5.233   3.171   2.212  2.2995 -1.4534 -1.0188
  762SOL    HW2 2328   5.305   3.225   2.334 -1.4178  1.5018  0.0596
  763SOL     OW 2329   5.374   3.498   2.992 -0.2021  0.4221  0.3656
  763SOL    HW1 2330   5.300   3.559   3.000 -0.2359  0.2200  2.1473
  763SOL    HW2 2331   5.341   3.427   2.938 -1.3717  0.3078  1.1713
  764SOL     OW 2332   1.515   2.089   2.192 -0.2130  0.2336  0.4368
  764SOL    HW1 2333   1.473   2.004   2.186 -0.6772  0.4971 -0.1387
  764SOL    HW2 2334   1.476   2.141   2.122 -0.4432  1.1336  1.1995
  765SOL     OW 2335   5.594   2.363   2.217  0.5619 -0.0098 -0.0758
  765SOL    HW1 2336   5.620   2.373   2.309  1.0825  1.4984 -0.3533
  765SOL    HW2 2337   5.522   2.425   2.206 -0.7459 -1.4944 -0.2538
  766SOL     OW 2338   5.690   2.022   2.580  0.0860 -0.3443 -0.3313
  766SOL    HW1 2339   5.682   2.095   2.641  0.8011 -0.1455 -0.4678
  766SOL    HW2 2340   5.783   2.017   2.560 -0.2606  0.3609 -2.3517
  767SOL     OW 2341   4.396   2.590   2.225 -0.3200 -0.1571  0.5951
  767SOL    HW1 2342   4.456   2.652   2.184 -2.3657  1.5671  0.0335
  767SOL    HW2 2343   4.437   2.505   2.211  1.4889  0.8376 -0.6270
  768SOL     OW 2344   5.673   3.427   2.034 -0.2370 -0.3040  0.1280
  768SOL    HW1 2345   5.682   3.342   2.076  1.3824 -0.4613 -0.4812
  768SOL    HW2 2346   5.745   3.432   1.972  0.0562  1.7462  0.5417
  769SOL     OW 2347   4.355   3.727   1.063 -0.3616  0.4896  0.0629
  769SOL    HW1 2348   4.415   3.724   1.138  0.3916  1.5944 -0.4730
  769SOL    HW2 2349   4.369   3.644   1.018 -0.5630 -0.0319  0.9477
  770SOL     OW 2350   4.514   3.968   0.996  0.0759  0.6145 -0.3064
  770SOL    HW1 2351   4.449   4.027   0.957  0.6014  0.2958 -1.7521
  770SOL    HW2 2352   4.463   3.890   1.020 -0.3904  1.1146  0.3825
  771SOL     OW 2353   1.602   4.052   0.194  0.3478  0.0731 -0.1154
  771SOL    HW1 2354   1.513   4.076   0.218  0.3715  0.3229 -0.2713
  771SOL    HW2 2355   1.599   3.957   0.185  0.8541 -0.3501  2.9978
  772SOL     OW 2356   4.937   3.918   1.501  0.4452 -0.0182 -0.2626
  772SOL    HW1 2357   4.941   3.977   1.427  1.1531 -0.0437 -0.2533
  772SOL    HW2 2358   4.963   3.833   1.466 -1.1903 -0.4874 -0.4189
  773SOL     OW 2359   1.141   4.220   1.479 -0.4832  0.0650  0.1582
  773SOL    HW1 2360   1.212   4.179   1.529  0.9826 -1.6204 -2.9723
  773SOL    HW2 2361   1.144   4.312   1.504  2.4113 -0.0715  0.6617
  774SOL     OW 2362   4.490   4.317   0.664  0.4343 -0.3228  0.7324
  774SOL    HW1 2363   4.511   4.403   0.627  0.9530 -1.0447 -0.7448
  774SOL    HW2 2364   4.398   4.324   0.689  0.1938  0.3843 -0.2599
  775SOL     OW 2365   1.058   3.787   0.371 -0.4319 -0.3739 -0.4089
  775SOL    HW1 2366   1.145   3.779   0.331  0.3430  0.7187  0.9560
  775SOL    HW2 2367   1.027   3.873   0.343 -0.2736  0.0106  0.5723
  776SOL     OW 2368   4.929   3.710   1.888  0.0565 -0.1442 -0.1015
  776SOL    HW1 2369   4.904   3.672   1.804  1.1855 -3.3248  0.8354
  776SOL    HW2 2370   4.851   3.756   1.919 -1.6352 -2.1126 -1.2310
  777SOL     OW 2371   1.065   3.760   0.727 -0.0252 -0.2948  0.4094
  777SOL    HW1 2372   1.061   3.708   0.807 -0.0220  0.8903  1.2072
  777SOL    HW2 2373   1.016   3.709   0.662 -0.7065 -0.8977  1.3800
  778SOL     OW 2374   5.372   3.834   1.934 -0.2871 -0.3738 -0.8168
  778SOL    HW1 2375   5.375   3.886   1.853 -0.4163  1.4688  0.3011
  778SOL    HW2 2376   5.284   3.848   1.968  0.6784  1.4504  1.1785
  779SOL     OW 2377   5.018   4.022   1.048 -0.1332 -0.5113 -0.0678
  779SOL    HW1 2378   4.952   3.954   1.031 -0.1443 -0.2570 -1.0996
  779SOL    HW2 2379   5.101   3.976   1.044 -0.2129 -0.7313  0.6952
  780SOL     OW 2380   4.328   4.100   0.856 -0.1598 -0.0782  0.1163
  780SOL    HW1 2381   4.335   4.186   0.813 -0.0988  0.2824  0.8227
  780SOL    HW2 2382   4.267   4.051   0.802 -2.3167  1.3212  1.1297
  781SOL     OW 2383   2.864   1.891   2.662  0.2083  0.1199  0.0780
  781SOL    HW1 2384   2.781   1.862   2.622 -0.8747  1.2553  1.3839
  781SOL    HW2 2385   2.872   1.837   2.741  1.1445 -0.5183 -0.4324
  782SOL     OW 2386   1.905   4.463   1.881 -0.0865 -0.2532 -0.1352
  782SOL    HW1 2387   1.893   4.447   1.975  0.9081  2.9945  0.6807
  782SOL    HW2 2388   1.954   4.387   1.850  1.3836 -0.4874  2.4627
  783SOL     OW 2389   4.690   4.219   1.134  0.1083 -0.1223 -0.0327
  783SOL    HW1 2390   4.719   4.236   1.045  1.8107 -1.2514  0.2609
  783SOL    HW2 2391   4.618   4.156   1.125 -1.4516  1.6754 -0.6995
  784SOL     OW 2392   1.677   4.417   0.456  0.2398 -0.2852  0.5519
  784SOL    HW1 2393   1.628   4.392   0.378  2.1322 -0.9632 -0.4579
  784SOL    HW2 2394   1.754   4.463   0.423  1.3500 -1.0333  1.9659
  785SOL     OW 2395   4.739   3.913   1.969  0.1136 -0.1494  0.1859
  785SOL    HW1 2396   4.697   3.958   1.895  0.4414  0.1935  0.2043
  785SOL    HW2 2397   4.667   3.869   2.015 -0.1114 -0.2421 -0.2505
  786SOL     OW 2398   1.398   3.434   0.072  0.5220  0.2432 -0.6076
  786SOL    HW1 2399   1.464   3.451   0.138  0.2730  0.4282 -0.4024
  786SOL    HW2 2400   1.331   3.382   0.117  1.1392 -1.0643 -1.1523
  787SOL     OW 2401   5.567   4.042   2.082 -0.0114  0.2960  0.2915
  787SOL    HW1 2402   5.605   3.986   2.013 -0.6428  1.0373 -0.6891
  787SOL    HW2 2403   5.513   4.105   2.034 -0.8819  0.5118  1.5251
  788SOL     OW 2404   2.469   6.188   2.883 -0.1674 -0.5277 -0.2712
  788SOL    HW1 2405   2.510   6.260   2.932 -1.8412  0.0636  0.3340
  788SOL    HW2 2406   2.375   6.205   2.890 -0.5252 -1.4018 -2.2446
  789SOL     OW 2407   5.072   3.950   1.911  0.0306 -0.2348 -0.2547
  789SOL    HW1 2408   5.024   4.007   1.972  1.4023 -0.5012  1.1594
  789SOL    HW2 2409   5.023   3.869   1.910 -1.1141  0.4477 -1.1044
  790SOL     OW 2410   1.370   4.211   1.341 -0.6839  0.0469  0.2167
  790SOL    HW1 2411   1.377   4.140   1.278 -0.1864 -0.1773  0.5202
  790SOL    HW2 2412   1.277   4.212   1.366 -0.8323 -0.0337 -0.3114
  791SOL     OW 2413   0.785   3.942   0.052  0.4770 -0.0494  0.4602
  791SOL    HW1 2414   0.718   3.924   0.118 -0.8787 -0.3293 -0.9359
  791SOL    HW2 2415   0.847   3.870   0.061 -1.7009 -2.2707 -1.0183
  792SOL     OW 2416   4.530   3.969   0.481  0.0056 -0.2247 -0.2023
  792SOL    HW1 2417   4.555   3.992   0.571  1.4049  0.4180 -0.7108
  792SOL    HW2 2418   4.577   3.887   0.464 -1.2879 -1.0520  0.0527
  793SOL     OW 2419   1.306   4.355   0.132  0.2433  0.6200  0.1069
  793SOL    HW1 2420   1.363   4.329   0.059 -1.2336  1.2844 -1.3638
  793SOL    HW2 2421   1.344   4.437   0.164  0.3569  0.8377 -0.5727
  794SOL     OW 2422   4.861   4.295   1.707 -0.0062  0.1382 -0.1016
  794SOL    HW1 2423   4.907   4.291   1.623 -0.3579 -1.1574 -0.2507
  794SOL    HW2 2424   4.931   4.307   1.771  0.5065 -1.0848 -0.3966
  795SOL     OW 2425   4.820   3.691   1.147 -0.2354 -0.0220  0.2435
  795SOL    HW1 2426   4.733   3.722   1.171  0.6156  1.6827  1.3988
  795SOL    HW2 2427   4.865   3.769   1.113  1.2311 -0.5250  0.9153
  796SOL     OW 2428   0.871   3.638   0.523  0.6314 -0.0310  0.2446
  796SOL    HW1 2429   0.935   3.693   0.477  0.1498  3.5655  3.3994
  796SOL    HW2 2430   0.787   3.662   0.485  0.6151 -0.3691  0.0608
  797SOL     OW 2431   1.130   4.007   0.678 -0.1288 -0.5215  0.5977
  797SOL    HW1 2432   1.101   3.917   0.691 -0.7060 -0.3269  0.7063
  797SOL    HW2 2433   1.049   4.055   0.660  0.1666 -0.0142  0.6094
  798SOL     OW 2434   0.512   3.966   0.519 -0.6056  0.3638  0.2047
  798SOL    HW1 2435   0.481   3.878   0.497  0.7413  0.0541 -0.5941
  798SOL    HW2 2436   0.569   3.953   0.594 -0.5197  0.5783  0.1770
  799SOL     OW 2437   1.314   3.801   1.288  0.0989 -0.4117 -0.0290
  799SOL    HW1 2438   1.400   3.812   1.328 -0.9525  0.4047  2.1744
  799SOL    HW2 2439   1.301   3.706   1.284  0.4366 -0.5242  1.1842
  800SOL     OW 2440   1.225   4.200   1.014  0.7372  0.0777  0.4710
  800SOL    HW1 2441   1.209   4.154   1.097 -0.5447  0.2017  0.3203
  800SOL    HW2 2442   1.138   4.211   0.976  1.3893 -1.1257 -1.5216
  801SOL     OW 2443   0.732   4.100   0.421 -0.3641 -0.1052 -0.1327
  801SOL    HW1 2444   0.654   4.049   0.445 -0.4698 -1.0279 -2.2360
  801SOL    HW2 2445   0.698   4.187   0.400 -0.4604  0.2562  1.3719
  802SOL     OW 2446   1.407   3.542   1.787  0.9317  0.2614  0.4826
  802SOL    HW1 2447   1.448   3.600   1.851 -0.0590  0.1009  1.2833
  802SOL    HW2 2448   1.419   3.586   1.703  0.2353  1.6274  1.0710
  803SOL     OW 2449   4.877   3.599   1.654 -0.0170 -0.3842 -0.0403
  803SOL    HW1 2450   4.879   3.503   1.652 -0.9479 -0.4105 -0.7601
  803SOL    HW2 2451   4.841   3.623   1.569 -3.8239  0.4215  1.5668
  804SOL     OW 2452   4.778   3.539   1.389  0.3511 -0.1077  0.6123
  804SOL    HW1 2453   4.824   3.596   1.327 -0.8671 -1.8761 -2.0981
  804SOL    HW2 2454   4.848   3.490   1.432  1.2750  1.8035  1.4195
  805SOL     OW 2455   0.890   4.144   0.653  0.5095  0.0186 -0.3936
  805SOL    HW1 2456   0.848   4.128   0.568  0.7937  0.5439 -0.6377
  805SOL    HW2 2457   0.825   4.193   0.702  0.5308  0.1378 -0.4837
  806SOL     OW 2458   4.823   3.717   0.732 -0.1255  0.6818  0.2067
  806SOL    HW1 2459   4.831   3.655   0.659  0.3180 -1.1809  1.7697
  806SOL    HW2 2460   4.913   3.729   0.763 -0.5310 -0.3998  1.8993
  807SOL     OW 2461   1.395   4.221   0.560  0.0064 -0.7350 -0.9171
  807SOL    HW1 2462   1.386   4.133   0.525  0.1019 -1.4626  0.8011
  807SOL    HW2 2463   1.307   4.258   0.557 -0.0182 -0.8362 -1.7069
  808SOL     OW 2464   3.594   6.022   2.948 -0.4984 -0.3507 -0.6114
  808SOL    HW1 2465   3.574   5.966   2.873  1.9682 -0.2853 -1.3869
  808SOL    HW2 2466   3.508   6.052   2.979 -1.6195 -0.7509 -3.1118
  809SOL     OW 2467   4.412   4.026   1.621 -0.0349  0.2724  0.7709
  809SOL    HW1 2468   4.357   3.971   1.677 -0.2027  0.6326  0.9664
  809SOL    HW2 2469   4.486   4.050   1.676  1.5547 -2.0709 -0.1653
  810SOL     OW 2470   5.365   3.987   1.477  0.5256  0.3295 -0.4641
  810SOL    HW1 2471   5.410   4.071   1.479 -0.3919  0.8380  1.1421
  810SOL    HW2 2472   5.292   3.997   1.538  0.3730 -1.6190 -0.2332
  811SOL     OW 2473   1.119   3.991   1.207  0.0159 -0.4057  0.1257
  811SOL    HW1 2474   1.073   3.991   1.291  1.1179  1.3766  0.7697
  811SOL    HW2 2475   1.178   3.916   1.212  0.8737  0.3259  1.4231
  812SOL     OW 2476   4.125   3.909   1.946 -0.4625  0.9573  0.2429
  812SOL    HW1 2477   4.068   3.845   1.988 -0.4055  0.5892 -0.2314
  812SOL    HW2 2478   4.109   3.991   1.994 -0.1937  0.4898  1.1529
  813SOL     OW 2479   4.105   4.112   1.771  0.5760 -0.1275  0.7037
  813SOL    HW1 2480   4.118   4.039   1.832 -0.0484  1.0222  2.2836
  813SOL    HW2 2481   4.169   4.177   1.798 -0.7206  1.0102  1.1569
  814SOL     OW 2482   0.998   4.354   0.097  0.1529 -0.1251 -0.0353
  814SOL    HW1 2483   1.090   4.342   0.074 -0.4138 -0.8350 -2.1710
  814SOL    HW2 2484   0.978   4.443   0.067 -0.0702 -0.3037 -0.4257
  815SOL     OW 2485   1.547   4.308   1.081 -0.7233  0.0343  0.2071
  815SOL    HW1 2486   1.478   4.251   1.116 -0.8530  0.0497 -0.0219
  815SOL    HW2 2487   1.531   4.393   1.122  0.9219 -0.6596  2.4590
  816SOL     OW 2488   4.827   4.434   1.205  0.4013  0.7049  0.5046
  816SOL    HW1 2489   4.791   4.352   1.173  0.5036 -0.5216  3.2433
  816SOL    HW2 2490   4.764   4.464   1.271  1.1044  2.0488  0.5985
  817SOL     OW 2491   0.922   3.715   0.114 -0.2437  0.2236 -0.2506
  817SOL    HW1 2492   0.936   3.708   0.209  0.0454  0.0935 -0.3026
  817SOL    HW2 2493   0.942   3.628   0.080 -1.8961 -0.1786 -0.2437
  818SOL     OW 2494   1.814   3.749   0.702 -0.6035 -0.1953 -0.5532
  818SOL    HW1 2495   1.734   3.796   0.681 -0.3471 -0.0230 -1.1668
  818SOL    HW2 2496   1.799   3.660   0.673 -0.2811  0.0229 -1.4216
  819SOL     OW 2497   1.727   4.105   1.142 -0.2625 -0.7049  0.5465
  819SOL    HW1 2498   1.700   4.186   1.099  1.6632  0.3659  1.2045
  819SOL    HW2 2499   1.647   4.054   1.150 -1.1906  0.2793 -1.6556
  820SOL     OW 2500   4.608   4.077   0.728  0.3827 -0.3882  0.7300
  820SOL    HW1 2501   4.688   4.096   0.778 -0.9380  0.8067  2.5482
  820SOL    HW2 2502   4.568   4.163   0.716 -0.9356 -1.0304  0.4201
  821SOL     OW 2503   0.947   3.896   0.999  0.1174  0.7124  0.2109
  821SOL    HW1 2504   0.976   3.807   0.979 -0.4482  0.1853  1.5976
  821SOL    HW2 2505   1.027   3.943   1.022  0.4573  0.6698 -0.8287
  822SOL     OW 2506   1.647   4.186   1.482  0.1541 -0.1628  0.7150
  822SOL    HW1 2507   1.687   4.232   1.408 -0.8802  0.6980  0.6732
  822SOL    HW2 2508   1.556   4.171   1.455  0.3142 -1.7392  0.9637
  823SOL     OW 2509   1.219   3.761   1.556  0.6535 -0.0002  0.0972
  823SOL    HW1 2510   1.159   3.688   1.570  0.5261 -0.3433 -1.9553
  823SOL    HW2 2511   1.164   3.833   1.525  0.8288  0.9079  1.7481
  824SOL     OW 2512   2.217   6.257   2.981  0.2987  0.2255 -0.3289
  824SOL    HW1 2513   2.229   6.210   3.064  1.5741 -0.0541 -0.6547
  824SOL    HW2 2514   2.204   6.348   3.007  0.0849  0.0464  0.2023
  825SOL     OW 2515   4.243   3.921   0.166 -0.3236 -0.4449 -0.0870
  825SOL    HW1 2516   4.228   3.937   0.259  1.0237  1.0902 -0.0967
  825SOL    HW2 2517   4.335   3.944   0.151 -0.2416 -1.5890 -1.6139
  826SOL     OW 2518   4.599   4.278   1.979 -0.2568  0.0831 -0.1085
  826SOL    HW1 2519   4.558   4.351   1.933 -1.6666  1.1750  2.6582
  826SOL    HW2 2520   4.527   4.233   2.022  0.9054 -1.2369  0.5436
  827SOL     OW 2521   1.312   3.753   0.260  0.0274  0.0970 -0.5283
  827SOL    HW1 2522   1.341   3.663   0.274 -1.4985 -0.2464  0.6705
  827SOL    HW2 2523   1.364   3.783   0.186  2.5301 -0.8509  0.7211
  828SOL     OW 2524   2.064   4.231   1.777  0.2215 -0.3673 -0.2417
  828SOL    HW1 2525   2.143   4.204   1.731  0.0084 -1.4334 -0.0203
  828SOL    HW2 2526   1.993   4.193   1.725 -0.1961  1.0944 -0.7873
  829SOL     OW 2527   1.819   3.698   1.183 -0.0920  0.2928  0.3880
  829SOL    HW1 2528   1.780   3.615   1.157 -1.7005  1.1679 -0.2049
  829SOL    HW2 2529   1.892   3.710   1.122 -0.1568 -0.4495  0.1516
  830SOL     OW 2530   3.024   6.335   2.992 -0.6207  0.0375  0.4001
  830SOL    HW1 2531   3.060   6.395   3.057 -0.5319 -0.5127  0.8687
  830SOL    HW2 2532   3.025   6.249   3.035 -1.7871 -0.1191  0.1479
  831SOL     OW 2533   4.492   4.026   1.382 -0.0267  0.2783  0.7766
  831SOL    HW1 2534   4.513   4.119   1.370  0.6127  0.0523  0.0383
  831SOL    HW2 2535   4.452   4.021   1.469  2.0938  0.8999  1.8569
  832SOL     OW 2536   1.368   3.953   0.853 -0.0324 -0.8093 -0.1879
  832SOL    HW1 2537   1.331   3.871   0.884 -1.4083  0.0113  0.4048
  832SOL    HW2 2538   1.304   3.987   0.791  0.6062 -0.2504 -0.5633
  833SOL     OW 2539   1.017   3.635   0.966 -0.4145  0.6067 -0.1300
  833SOL    HW1 2540   1.084   3.567   0.955  1.5480  2.3609  0.2848
  833SOL    HW2 2541   0.968   3.607   1.043 -0.1842 -0.7337 -0.4422
  834SOL     OW 2542   3.598   5.711   2.898  0.7518 -0.0992 -0.1777
  834SOL    HW1 2543   3.690   5.683   2.898  0.1243 -2.4305 -1.5268
  834SOL    HW2 2544   3.568   5.696   2.987  1.7155  0.8289  0.3118
  835SOL     OW 2545   1.282   4.003   0.446  0.4465  0.0571  0.2806
  835SOL    HW1 2546   1.210   4.019   0.507 -0.1559  1.0349 -0.6569
  835SOL    HW2 2547   1.305   3.911   0.460  0.1766  0.1948  1.8117
  836SOL     OW 2548   1.570   4.179   0.842  0.4122  0.0527  0.7004
  836SOL    HW1 2549   1.504   4.110   0.847 -1.4553  1.7503  0.6195
  836SOL    HW2 2550   1.565   4.224   0.927 -0.1718  1.5906 -0.1084
  837SOL     OW 2551   4.411   3.962   2.847 -0.0250 -0.4119 -0.0439
  837SOL    HW1 2552   4.463   3.885   2.872  0.0041 -0.3268  0.1660
  837SOL    HW2 2553   4.454   3.996   2.768 -0.3493 -0.9119 -0.4356
  838SOL     OW 2554   4.491   3.962   2.435 -0.1624  0.3105 -0.1361
  838SOL    HW1 2555   4.470   3.871   2.457 -2.0672  0.5588 -0.7504
  838SOL    HW2 2556   4.539   3.995   2.511  0.4940 -1.1759  0.1236
  839SOL     OW 2557   1.917   3.990   2.356 -0.1945  1.1781 -0.3402
  839SOL    HW1 2558   1.915   4.061   2.420 -0.6894  0.8781 -0.0225
  839SOL    HW2 2559   1.975   3.924   2.396 -1.0571  0.6885  0.1266
  840SOL     OW 2560   5.885   3.957   2.923 -0.3918 -0.1399 -0.0850
  840SOL    HW1 2561   5.862   4.023   2.858  1.4594 -1.0289 -1.7601
  840SOL    HW2 2562   5.908   4.007   3.001  1.7420  1.3191 -1.5586
  841SOL     OW 2563   3.768   1.634   0.215  0.3353  0.4835  0.3827
  841SOL    HW1 2564   3.777   1.549   0.172 -1.4756  0.1551  0.5863
  841SOL    HW2 2565   3.674   1.645   0.228  0.3748  3.0956 -0.7837
  842SOL     OW 2566   4.596   4.079   2.667  0.2090 -0.2967  0.0953
  842SOL    HW1 2567   4.610   4.156   2.722  0.3129 -1.3264  1.5527
  842SOL    HW2 2568   4.678   4.030   2.674  0.7926  0.2134 -2.1594
  843SOL     OW 2569   5.434   3.565   1.939 -0.1114 -0.2180 -0.0636
  843SOL    HW1 2570   5.449   3.659   1.926 -0.3948 -0.1789 -0.1059
  843SOL    HW2 2571   5.518   3.532   1.973  0.1770 -0.0604 -0.6110
  844SOL     OW 2572   5.614   4.401   2.532 -0.3256 -0.6405 -0.6224
  844SOL    HW1 2573   5.674   4.434   2.465  0.3015  1.1127  0.6986
  844SOL    HW2 2574   5.614   4.307   2.520  0.9738 -0.5032 -2.0899
  845SOL     OW 2575   5.268   4.258   2.732  0.2276 -0.0826  0.1760
  845SOL    HW1 2576   5.233   4.174   2.762  1.5930  0.1930  2.8476
  845SOL    HW2 2577   5.193   4.317   2.734 -0.0291 -0.3854  2.0944
  846SOL     OW 2578   4.299   4.915   2.741 -0.3960  0.0574  0.1052
  846SOL    HW1 2579   4.392   4.891   2.737 -0.6001 -2.1075  3.7421
  846SOL    HW2 2580   4.298   4.999   2.787 -0.1720 -0.6253  1.4425
  847SOL     OW 2581   5.462   3.782   2.212 -0.2079  0.5137  0.3986
  847SOL    HW1 2582   5.460   3.840   2.136  0.2281  0.3570  0.2660
  847SOL    HW2 2583   5.553   3.755   2.220 -0.4254 -0.2593  0.3742
  848SOL     OW 2584   4.934   4.212   3.013  0.8264 -0.4110 -0.1709
  848SOL    HW1 2585   4.923   4.118   3.029 -0.4376 -0.1460  0.6503
  848SOL    HW2 2586   4.885   4.254   3.083  0.2514  0.8629 -1.2915
  849SOL     OW 2587   5.513   4.447   2.205 -0.0687  0.6734  0.1420
  849SOL    HW1 2588   5.580   4.472   2.270 -1.2677  0.8881  1.3472
  849SOL    HW2 2589   5.458   4.385   2.252  0.0453 -0.5360 -1.2749
  850SOL     OW 2590   2.059   3.832   2.582 -0.2065 -0.0685  0.6052
  850SOL    HW1 2591   2.053   3.738   2.600 -0.1488 -0.9765 -3.1905
  850SOL    HW2 2592   2.134   3.840   2.523 -1.8160  1.8833 -1.3489
  851SOL     OW 2593   5.216   4.238   2.132 -0.2649  0.4329 -0.1885
  851SOL    HW1 2594   5.258   4.287   2.203 -0.6306 -0.4519  0.6643
  851SOL    HW2 2595   5.167   4.170   2.177 -0.1495 -0.4208 -1.3225
  852SOL     OW 2596   3.457   2.008   0.387  0.0463 -0.0566  0.1420
  852SOL    HW1 2597   3.516   2.069   0.431 -0.0075  0.3657 -0.3669
  852SOL    HW2 2598   3.409   1.965   0.458  2.0280 -1.5287  0.6928
  853SOL     OW 2599   5.477   4.018   2.379  0.2685 -0.2590 -0.2970
  853SOL    HW1 2600   5.492   3.981   2.292 -1.4166 -0.2561 -0.6294
  853SOL    HW2 2601   5.554   4.071   2.397  0.6609 -0.3001 -1.7735
  854SOL     OW 2602   4.569   3.611   2.340  0.6613  0.1907 -0.0517
  854SOL    HW1 2603   4.576   3.696   2.297  1.6838 -0.4108 -1.1263
  854SOL    HW2 2604   4.513   3.627   2.416 -1.4619  1.2213 -1.7489
  855SOL     OW 2605   5.734   4.134   2.515 -0.3037 -0.4178 -0.1866
  855SOL    HW1 2606   5.789   4.094   2.448  1.2979  1.2836  0.0250
  855SOL    HW2 2607   5.794   4.189   2.566 -2.0150  0.7223  0.7145
  856SOL     OW 2608   4.388   4.188   3.034 -0.4441 -0.0329  0.6888
  856SOL    HW1 2609   4.407   4.102   3.072 -0.7513 -0.4045  0.0243
  856SOL    HW2 2610   4.414   4.251   3.101  1.1032 -0.5916  0.6650
  857SOL     OW 2611   2.993   1.471   0.278 -0.1101  0.2860  0.2108
  857SOL    HW1 2612   2.909   1.500   0.241  0.3837  0.4771 -0.7910
  857SOL    HW2 2613   3.035   1.551   0.308 -0.4800  0.1385  1.1709
  858SOL     OW 2614   5.714   3.889   2.653  0.2990  0.0577 -0.4362
  858SOL    HW1 2615   5.712   3.973   2.607 -0.4678  0.9603  1.1663
  858SOL    HW2 2616   5.664   3.904   2.733  1.0878 -1.6097  0.4231
  859SOL     OW 2617   5.307   4.359   2.390  0.0211  0.1896  0.5403
  859SOL    HW1 2618   5.299   4.277   2.439  3.2187  1.6763  4.0849
  859SOL    HW2 2619   5.236   4.414   2.424 -0.5197 -0.2282  0.1057
  860SOL     OW 2620   5.055   4.302   1.905  0.5480  0.1271 -0.0837
  860SOL    HW1 2621   5.147   4.310   1.931  0.2940 -0.9317  1.2455
  860SOL    HW2 2622   5.016   4.245   1.972 -1.2599  1.2189 -0.1459
  861SOL     OW 2623   3.399   1.543   0.043  0.1391  0.6599  0.0214
  861SOL    HW1 2624   3.316   1.513   0.006  0.0658  1.4552 -0.4746
  861SOL    HW2 2625   3.377   1.625   0.088  0.4759  0.3645  0.7496
  862SOL     OW 2626   3.447   2.116   0.125  0.1362  0.4670  0.4151
  862SOL    HW1 2627   3.432   2.097   0.218 -0.1320  0.6945  0.4201
  862SOL    HW2 2628   3.378   2.178   0.102  0.8669  1.2638  0.3341
  863SOL     OW 2629   4.631   4.284   2.878  0.3306 -0.1108  0.5158
  863SOL    HW1 2630   4.574   4.235   2.938  0.7789  0.4513  1.4183
  863SOL    HW2 2631   4.686   4.337   2.935  1.6172 -0.4708 -0.3397
  864SOL     OW 2632   2.250   1.446   0.116 -0.3538  0.0858 -0.7080
  864SOL    HW1 2633   2.241   1.365   0.066 -0.9539 -0.3515  0.0780
  864SOL    HW2 2634   2.183   1.504   0.081 -2.1439 -0.9111  0.8470
  865SOL     OW 2635   5.004   4.365   2.771  0.5599 -0.4022 -0.2781
  865SOL    HW1 2636   4.986   4.361   2.864  0.7045 -1.8192 -0.2845
  865SOL    HW2 2637   4.972   4.282   2.736 -1.2027  0.8350 -1.8386
  866SOL     OW 2638   5.209   4.056   2.363 -0.0794 -0.4577 -0.2047
  866SOL    HW1 2639   5.176   3.974   2.400  0.7509 -1.3724 -1.3959
  866SOL    HW2 2640   5.304   4.043   2.358 -0.0812 -0.0168 -1.7679
  867SOL     OW 2641   2.057   3.658   2.294  0.2309  0.3631 -0.0720
  867SOL    HW1 2642   1.985   3.594   2.302  1.1473 -0.5191  2.1338
  867SOL    HW2 2643   2.057   3.683   2.202 -0.9210 -1.9772 -0.8002
  868SOL     OW 2644   1.714   4.001   1.887  0.0965  0.0440 -0.1172
  868SOL    HW1 2645   1.772   4.023   1.959 -0.4707  1.8718 -0.1783
  868SOL    HW2 2646   1.768   4.009   1.808  0.7395 -2.0350  0.0461
  869SOL     OW 2647   4.279   4.268   2.806  0.0635 -0.2891  0.6330
  869SOL    HW1 2648   4.303   4.186   2.764 -4.5110 -1.3751 -0.4865
  869SOL    HW2 2649   4.329   4.270   2.887  3.8682 -1.6823 -1.4286
  870SOL     OW 2650   3.250   1.779   0.068  0.3390  0.2881 -0.1027
  870SOL    HW1 2651   3.165   1.758   0.029  0.9344 -1.5800 -0.5181
  870SOL    HW2 2652   3.230   1.842   0.137 -1.2892  0.3721 -0.5917
  871SOL     OW 2653   2.008   2.551   0.036  0.0533  0.5508  0.0250
  871SOL    HW1 2654   1.931   2.606   0.028 -1.4034 -1.2460  1.0147
  871SOL    HW2 2655   1.975   2.461   0.029  2.0860 -0.2705  0.1417
  872SOL     OW 2656   5.411   4.194   1.927 -0.5019 -0.2449 -0.3749
  872SOL    HW1 2657   5.353   4.216   2.000  2.0968  2.7247  1.0677
  872SOL    HW2 2658   5.385   4.254   1.857  0.0410  0.3283 -0.1039
  873SOL     OW 2659   5.718   4.401   2.789 -0.1311  0.2456 -0.2020
  873SOL    HW1 2660   5.695   4.382   2.699 -2.4078  0.8952  0.1897
  873SOL    HW2 2661   5.667   4.338   2.841  1.4327 -0.3812  0.6565
  874SOL     OW 2662   5.160   4.020   2.822 -0.3339  0.0336 -0.1398
  874SOL    HW1 2663   5.156   3.930   2.788 -1.9057 -0.2919  0.7600
  874SOL    HW2 2664   5.117   4.014   2.907 -0.9811  1.7471 -0.3138
  875SOL     OW 2665   6.364   3.528   2.901 -0.0067 -0.0472 -0.4757
  875SOL    HW1 2666   6.388   3.520   2.809 -1.2299  1.4386 -0.9635
  875SOL    HW2 2667   6.268   3.524   2.901 -0.1657  2.2031  0.4263
  876SOL     OW 2668   4.207   1.769  -0.022  0.0342  0.1648 -0.3383
  876SOL    HW1 2669   4.210   1.783  -0.116  2.0989  1.7323 -0.1074
  876SOL    HW2 2670   4.257   1.688  -0.008 -0.9429 -0.5100 -0.6090
  877SOL     OW 2671   4.854   4.263   2.310 -0.3221 -0.0373  0.4093
  877SOL    HW1 2672   4.906   4.253   2.390  0.7154  0.1147 -0.2239
  877SOL    HW2 2673   4.798   4.186   2.308 -0.9519  0.3650  1.6983
  878SOL     OW 2674   5.603   4.189   2.910 -0.2305  0.3019 -0.0724
  878SOL    HW1 2675   5.616   4.186   3.004 -0.5013 -0.2763 -0.0511
  878SOL    HW2 2676   5.560   4.106   2.888 -0.1737  0.4281 -0.7008
  879SOL     OW 2677   3.877   1.924   0.089  0.0614  0.1986  0.6971
  879SOL    HW1 2678   3.828   2.001   0.060 -1.8941 -1.3825 -0.4101
  879SOL    HW2 2679   3.959   1.928   0.040 -0.6245  0.8223 -0.4166
  880SOL     OW 2680   2.933   1.910   0.275  0.3138 -0.0113 -0.5419
  880SOL    HW1 2681   2.937   1.852   0.199 -1.9027  1.5039 -1.9464
  880SOL    HW2 2682   2.949   1.997   0.239  1.8312  0.4930  1.2170
  881SOL     OW 2683   4.527   3.848   2.155 -0.3492 -0.1833  0.1978
  881SOL    HW1 2684   4.469   3.775   2.133  0.6943 -1.1301  0.5072
  881SOL    HW2 2685   4.477   3.926   2.129 -1.1536 -1.0236 -0.9128
  882SOL     OW 2686   4.435   3.711   2.555  0.1991  0.3835  0.0119
  882SOL    HW1 2687   4.437   3.639   2.617  0.5202  1.5963  1.4596
  882SOL    HW2 2688   4.342   3.723   2.535 -0.1868  1.5340  2.2005
  883SOL     OW 2689   5.962   4.063   2.393  0.0351  0.0626 -0.0465
  883SOL    HW1 2690   6.006   4.140   2.429  1.0120  0.2056 -1.4914
  883SOL    HW2 2691   6.032   4.003   2.370 -0.7250 -1.4704  1.3832
  884SOL     OW 2692   4.183   1.407   0.371 -0.0907  0.1066  0.4413
  884SOL    HW1 2693   4.115   1.344   0.345 -1.9825  1.1417  2.5721
  884SOL    HW2 2694   4.158   1.488   0.327  0.1948  0.3271  0.6876
  885SOL     OW 2695   4.397   3.572   2.788 -0.1510  0.1393 -0.4109
  885SOL    HW1 2696   4.421   3.658   2.822 -0.8844  0.6718 -1.2140
  885SOL    HW2 2697   4.319   3.547   2.838 -1.7252  1.2840 -2.1506
  886SOL     OW 2698   2.643   1.813   0.265  0.1463 -0.1422  0.1297
  886SOL    HW1 2699   2.675   1.796   0.176 -0.5164  0.3444 -0.2086
  886SOL    HW2 2700   2.669   1.903   0.284  0.4004 -0.2892  0.4795
  887SOL     OW 2701   5.791   3.665   2.932  0.2781  0.2625  0.3257
  887SOL    HW1 2702   5.819   3.756   2.926 -1.5891  0.7805 -1.6238
  887SOL    HW2 2703   5.708   3.669   2.979 -0.6047 -0.2033 -1.1463
  888SOL     OW 2704   5.446   3.948   2.849 -0.5384  0.3121  0.0796
  888SOL    HW1 2705   5.439   3.891   2.925 -1.0546 -0.1020 -0.2734
  888SOL    HW2 2706   5.362   3.994   2.845  0.0211  1.4165  0.6027
  889SOL     OW 2707   1.420   3.608   1.511 -0.2256  0.5788  0.0040
  889SOL    HW1 2708   1.370   3.561   1.444 -0.1097 -1.2952  1.1555
  889SOL    HW2 2709   1.362   3.678   1.540 -1.5466 -0.5497  0.1755
  890SOL     OW 2710   5.910   4.169   2.724  0.1833 -0.0132  0.1692
  890SOL    HW1 2711   5.992   4.165   2.674  1.1049 -0.1977  1.6316
  890SOL    HW2 2712   5.922   4.244   2.783 -1.1331  0.5842 -0.2952
  891SOL     OW 2713   6.065   3.534   2.823  0.0435 -0.1114  0.3789
  891SOL    HW1 2714   6.082   3.627   2.805 -3.1004  0.5014 -0.0318
  891SOL    HW2 2715   6.073   3.491   2.738  1.1238 -0.1865  0.5023
  892SOL     OW 2716   2.138   0.390  -0.001 -0.1997 -0.8481  0.3962
  892SOL    HW1 2717   2.165   0.392   0.091  0.6420  0.4056  0.1489
  892SOL    HW2 2718   2.162   0.303  -0.031 -0.7894 -1.3942  1.4380
  893SOL     OW 2719   1.970   4.250   1.212 -0.8344 -0.0507  0.3177
  893SOL    HW1 2720   2.040   4.220   1.155 -0.9483 -0.1622  0.2359
  893SOL    HW2 2721   1.923   4.170   1.236  0.3457 -0.2671  2.0934
  894SOL     OW 2722   1.909   4.635   0.444 -0.3565 -0.1368  0.2469
  894SOL    HW1 2723   1.969   4.676   0.506 -0.4746 -0.2840  0.4613
  894SOL    HW2 2724   1.823   4.673   0.466 -0.2621  0.5097 -0.4285
  895SOL     OW 2725   2.315   1.001   1.275 -0.0919 -0.1726 -0.2737
  895SOL    HW1 2726   2.278   1.070   1.329 -2.0314 -1.0267 -0.4477
  895SOL    HW2 2727   2.337   0.931   1.336  1.4766  0.3784 -0.1513
  896SOL     OW 2728   3.454   1.529   0.632  0.0302 -0.4268  0.1165
  896SOL    HW1 2729   3.384   1.471   0.601 -1.0378  0.9943 -0.2083
  896SOL    HW2 2730   3.534   1.488   0.600 -0.7032 -1.6566 -0.2095
  897SOL     OW 2731   2.983   1.189   0.201  0.5416 -0.4037 -0.3052
  897SOL    HW1 2732   2.966   1.277   0.236 -1.5773 -0.9793  0.3068
  897SOL    HW2 2733   2.945   1.192   0.113 -0.7665 -1.0393  0.2043
  898SOL     OW 2734   2.653   1.130   0.985 -0.1805  0.2257  0.4038
  898SOL    HW1 2735   2.634   1.224   0.995  1.3894  0.8496 -1.6972
  898SOL    HW2 2736   2.568   1.087   0.993 -0.8919  1.7709  1.7822
  899SOL     OW 2737   3.126   4.776   1.446  0.7172 -0.3304  0.4198
  899SOL    HW1 2738   3.107   4.827   1.367 -0.3494  0.9164  1.4437
  899SOL    HW2 2739   3.111   4.837   1.518  1.6047 -1.4691  1.6031
  900SOL     OW 2740   2.439   1.186   0.649 -0.4026 -0.3830 -0.4201
  900SOL    HW1 2741   2.461   1.103   0.691 -1.1353 -0.4127 -0.0750
  900SOL    HW2 2742   2.374   1.162   0.582 -3.0498  0.2594  1.7518
  901SOL     OW 2743   2.059   5.732   2.225 -0.3460  0.0520 -0.2261
  901SOL    HW1 2744   2.019   5.801   2.172  1.1885  0.2889 -1.1410
  901SOL    HW2 2745   2.085   5.665   2.161  0.0116 -0.4479  0.4318
  902SOL     OW 2746   2.280   1.311   0.868  0.4604  0.4277  0.2438
  902SOL    HW1 2747   2.298   1.280   0.779 -1.6516  1.7410 -0.7029
  902SOL    HW2 2748   2.310   1.239   0.924  0.2494 -1.1948 -1.6129
  903SOL     OW 2749   3.504   1.542   1.576 -0.4647  0.0791  0.1576
  903SOL    HW1 2750   3.571   1.586   1.628  2.0987 -0.6812 -2.2475
  903SOL    HW2 2751   3.529   1.449   1.578 -0.5925 -0.0496 -1.8783
  904SOL     OW 2752   2.232   5.180   2.261  0.3858 -0.3010 -0.0366
  904SOL    HW1 2753   2.255   5.120   2.190  1.7144  0.1971 -0.0572
  904SOL    HW2 2754   2.262   5.266   2.230  0.7447 -0.0367  0.9993
  905SOL     OW 2755   3.471   0.971   0.796 -0.8381 -0.1107  0.1950
  905SOL    HW1 2756   3.541   1.013   0.746 -0.8005 -0.8923 -0.4307
  905SOL    HW2 2757   3.500   0.881   0.808 -2.2076 -0.7552 -1.0330
  906SOL     OW 2758   2.101   1.396   0.651 -0.2937 -0.3939  0.8234
  906SOL    HW1 2759   2.025   1.401   0.709  0.1883  0.2635  1.4177
  906SOL    HW2 2760   2.176   1.403   0.710  0.2580 -1.8742  0.3326
  907SOL     OW 2761   2.930   5.253   1.496 -0.4729  0.4068 -0.1022
  907SOL    HW1 2762   2.934   5.222   1.587 -0.1187  0.0835 -0.2248
  907SOL    HW2 2763   2.988   5.329   1.494  0.3829 -0.2364 -0.3045
  908SOL     OW 2764   1.939   1.333   0.443  0.2667  0.1261 -0.3278
  908SOL    HW1 2765   2.011   1.349   0.504  0.7974  2.7103 -1.4763
  908SOL    HW2 2766   1.974   1.358   0.357 -1.1433 -1.2813 -1.3746
  909SOL     OW 2767   2.100   1.287   1.139  0.0054  0.3286  0.0778
  909SOL    HW1 2768   2.078   1.197   1.162  4.1154  0.0800  4.7944
  909SOL    HW2 2769   2.053   1.341   1.203  0.4690  1.1651 -0.2657
  910SOL     OW 2770   2.593   1.431   1.426  0.1332  0.2604 -0.1819
  910SOL    HW1 2771   2.511   1.391   1.395 -0.9117  1.6963  0.6116
  910SOL    HW2 2772   2.650   1.431   1.349 -0.2372 -1.6159 -0.5152
  911SOL     OW 2773   3.132   4.605   1.650 -0.1737 -0.8018  0.2335
  911SOL    HW1 2774   3.042   4.572   1.648 -0.6807  0.5120  0.2122
  911SOL    HW2 2775   3.139   4.659   1.571  1.1859 -2.1933 -0.6608
  912SOL     OW 2776   1.648   0.681   0.588 -0.1192  0.1403 -0.4044
  912SOL    HW1 2777   1.630   0.764   0.632  1.0367 -0.1067  0.5743
  912SOL    HW2 2778   1.643   0.615   0.657  1.4108 -0.2910 -0.6735
  913SOL     OW 2779   2.079   1.651   0.108 -0.0236 -0.2642  0.0377
  913SOL    HW1 2780   2.011   1.595   0.147 -0.7032  0.1771 -0.4731
  913SOL    HW2 2781   2.105   1.710   0.178 -0.0903 -0.5075  0.2680
  914SOL     OW 2782   3.150   0.735   0.263  0.3902 -0.1536  0.5498
  914SOL    HW1 2783   3.120   0.655   0.218 -3.6813  0.0602  2.4729
  914SOL    HW2 2784   3.128   0.806   0.202 -0.0371 -0.2371  0.5996
  915SOL     OW 2785   1.757   5.085   1.830  0.5390 -0.7820  0.1115
  915SOL    HW1 2786   1.801   5.142   1.893 -1.9370  3.0626 -1.2964
  915SOL    HW2 2787   1.674   5.062   1.873 -1.0380  1.6328 -1.3354
  916SOL     OW 2788   2.311   1.534   1.025  0.4757 -0.2334  0.1933
  916SOL    HW1 2789   2.275   1.452   0.992  0.5816 -0.8864  1.6464
  916SOL    HW2 2790   2.343   1.579   0.946 -3.1902  0.3226 -1.1945
  917SOL     OW 2791   3.073   5.640   2.300  0.3417  0.3786 -0.1553
  917SOL    HW1 2792   3.130   5.714   2.281 -0.0921  0.6866 -0.2661
  917SOL    HW2 2793   3.019   5.630   2.222 -1.0373  1.2722  0.6419
  918SOL     OW 2794   2.665   4.614   0.641  0.4469 -0.1899  0.0978
  918SOL    HW1 2795   2.599   4.630   0.709  0.6218 -0.9888  0.4648
  918SOL    HW2 2796   2.613   4.592   0.563  0.2320  1.1941 -0.1727
  919SOL     OW 2797   2.344   1.114   1.036 -0.2822  0.2962 -0.2689
  919SOL    HW1 2798   2.293   1.053   0.982  0.7874 -0.3594 -0.5532
  919SOL    HW2 2799   2.352   1.069   1.120  1.9124 -0.7692 -0.9658
  920SOL     OW 2800   3.117   1.465   1.657 -0.0777  0.1194 -0.3636
  920SOL    HW1 2801   3.160   1.525   1.596  1.0097 -0.0603  0.2122
  920SOL    HW2 2802   3.028   1.458   1.623  0.0504  1.2679 -1.0189
  921SOL     OW 2803   1.943   4.364   2.161  0.2010  0.0529 -0.1160
  921SOL    HW1 2804   2.032   4.398   2.168 -0.1996  1.3636 -1.0026
  921SOL    HW2 2805   1.899   4.397   2.240  0.0395  0.9127 -0.5581
  922SOL     OW 2806   3.041   1.574   0.894 -0.7059  0.1277  0.3697
  922SOL    HW1 2807   2.996   1.620   0.965 -2.0770  1.1669 -1.1294
  922SOL    HW2 2808   2.979   1.508   0.865 -0.9308  0.9345 -1.0695
  923SOL     OW 2809   3.563   1.806   0.236  0.0873 -0.2646  0.0467
  923SOL    HW1 2810   3.495   1.740   0.235  1.0879 -1.4399 -2.7469
  923SOL    HW2 2811   3.526   1.879   0.285 -2.8008 -1.1934 -0.5910
  924SOL     OW 2812   2.689   4.882   0.925 -0.4019  0.5736 -0.1721
  924SOL    HW1 2813   2.645   4.805   0.890 -0.2564  0.2627  0.3174
  924SOL    HW2 2814   2.747   4.911   0.855 -1.2906  0.9207 -0.7873
  925SOL     OW 2815   1.952   4.930   1.712  0.3182  0.3512 -0.6334
  925SOL    HW1 2816   1.875   4.957   1.762  0.1656 -0.2150 -0.5552
  925SOL    HW2 2817   1.991   4.859   1.765  0.5643  0.2390 -0.9606
  926SOL     OW 2818   3.089   4.984   1.664 -0.1487 -0.3326  0.1994
  926SOL    HW1 2819   3.118   4.941   1.745 -1.7967  2.1296  2.2488
  926SOL    HW2 2820   3.145   5.062   1.657 -0.3487 -0.2580 -0.7918
  927SOL     OW 2821   2.759   5.093   1.329 -0.7950 -0.7139  0.1340
  927SOL    HW1 2822   2.752   5.139   1.245  0.6903  1.1234  0.9399
  927SOL    HW2 2823   2.808   5.153   1.385 -1.2677 -2.1227  2.1691
  928SOL     OW 2824   2.349   4.624   1.451 -0.4319 -0.4512  0.1523
  928SOL    HW1 2825   2.292   4.660   1.383  0.3798 -0.0060 -0.3066
  928SOL    HW2 2826   2.320   4.533   1.461 -0.9444 -0.3531 -0.3630
  929SOL     OW 2827   5.043   3.011   3.036  0.3835  0.2888  0.2192
  929SOL    HW1 2828   5.019   2.921   3.057 -2.7147  0.5036 -1.7169
  929SOL    HW2 2829   4.972   3.064   3.073  0.7729  1.6695 -0.8918
  930SOL     OW 2830   2.375   0.719   0.668 -0.9757 -0.2583 -0.6623
  930SOL    HW1 2831   2.351   0.693   0.757 -0.8318  3.0219  0.4807
  930SOL    HW2 2832   2.291   0.725   0.622 -1.1637 -0.7389 -0.3970
  931SOL     OW 2833   2.150   1.861   1.457  0.0291  0.0284  0.0500
  931SOL    HW1 2834   2.172   1.811   1.379  1.5124  0.0965  0.3741
  931SOL    HW2 2835   2.182   1.950   1.438  1.2394 -0.1586  1.0250
  932SOL     OW 2836   3.679   4.837   2.256 -0.2181 -0.1568 -0.0467
  932SOL    HW1 2837   3.724   4.767   2.208  2.0007  0.4092  1.0474
  932SOL    HW2 2838   3.697   4.818   2.348 -0.3052  1.3583  0.3130
  933SOL     OW 2839   3.145   1.111   0.457 -0.1177 -0.5303 -0.3499
  933SOL    HW1 2840   3.147   1.049   0.530  1.2969  1.3423  1.3270
  933SOL    HW2 2841   3.052   1.132   0.447 -0.3411 -0.7267  1.0249
  934SOL     OW 2842   2.322   4.342   1.089 -0.2504 -0.3204  0.0651
  934SOL    HW1 2843   2.395   4.372   1.035  0.5222  0.5971  1.5681
  934SOL    HW2 2844   2.281   4.273   1.036 -0.5107  1.5493 -2.3802
  935SOL     OW 2845   3.094   1.720   0.435  0.3861  0.7232  0.2184
  935SOL    HW1 2846   3.046   1.777   0.374 -0.1563  0.1939  0.1398
  935SOL    HW2 2847   3.110   1.776   0.511 -0.6694  0.8222  0.3883
  936SOL     OW 2848   2.044   1.891   1.072 -0.0776  0.0830 -0.0044
  936SOL    HW1 2849   2.096   1.823   1.116 -0.3357 -0.1506 -0.0559
  936SOL    HW2 2850   1.954   1.859   1.077 -0.4779  1.3385  1.6737
  937SOL     OW 2851   3.390   0.881   1.159 -0.5134  0.3982 -0.1085
  937SOL    HW1 2852   3.344   0.822   1.100  3.8770 -3.0028 -0.5896
  937SOL    HW2 2853   3.397   0.833   1.242  2.1512  0.5915 -0.1314
  938SOL     OW 2854   3.252   1.612   1.500  0.0269 -0.3424  0.9532
  938SOL    HW1 2855   3.344   1.602   1.521  0.1123 -1.6333  0.0692
  938SOL    HW2 2856   3.243   1.573   1.413 -1.2461  0.2758  0.7802
  939SOL     OW 2857   3.210   0.952   0.660 -0.0323 -0.4235  0.5061
  939SOL    HW1 2858   3.278   0.949   0.727 -0.3485 -0.9589  0.8092
  939SOL    HW2 2859   3.246   0.902   0.587 -0.8224 -2.3357  1.3626
  940SOL     OW 2860   2.448   1.358   1.837 -0.0380 -0.2177  0.6488
  940SOL    HW1 2861   2.366   1.405   1.852 -0.1470 -0.1511 -0.0911
  940SOL    HW2 2862   2.503   1.421   1.789  1.1657  0.4214  2.7369
  941SOL     OW 2863   1.793   4.402   1.598  0.0224 -0.1891  0.9213
  941SOL    HW1 2864   1.760   4.313   1.583  0.3551 -0.3634  1.2167
  941SOL    HW2 2865   1.882   4.400   1.562 -0.7299  0.6722 -1.1592
  942SOL     OW 2866   2.332   1.779   0.488  0.6860 -0.5195 -0.5011
  942SOL    HW1 2867   2.342   1.866   0.450 -0.6090  0.2486  0.8324
  942SOL    HW2 2868   2.422   1.746   0.495  1.2151  0.7995 -0.8272
  943SOL     OW 2869   1.810   1.778   1.062 -0.5810  0.1863  0.2243
  943SOL    HW1 2870   1.791   1.695   1.017  0.9202 -1.0328  1.7089
  943SOL    HW2 2871   1.738   1.789   1.124 -0.3190 -0.5205  0.6687
  944SOL     OW 2872   2.620   2.012   0.693 -0.0371  0.2227  0.1162
  944SOL    HW1 2873   2.641   1.927   0.730  0.8839  0.4477  0.1417
  944SOL    HW2 2874   2.690   2.029   0.630  0.6911  1.6588  1.2537
  945SOL     OW 2875   1.891   0.655   0.432 -0.1541  0.2798  0.4007
  945SOL    HW1 2876   1.808   0.645   0.477  0.3205  2.5325  1.9113
  945SOL    HW2 2877   1.878   0.730   0.373  0.1503 -0.7575 -1.0431
  946SOL     OW 2878   3.523   4.503   1.269 -0.2071 -0.0871  0.1813
  946SOL    HW1 2879   3.576   4.506   1.349 -1.0520  0.8130  0.7466
  946SOL    HW2 2880   3.435   4.527   1.299 -0.7476 -0.7023 -0.8707
  947SOL     OW 2881   2.182   4.925   1.895  0.3726  0.2240 -0.1417
  947SOL    HW1 2882   2.220   4.931   1.808 -1.5330  0.3144 -1.0044
  947SOL    HW2 2883   2.134   4.842   1.895 -1.1892  1.0749  0.1267
  948SOL     OW 2884   2.643   1.678   1.150 -0.2128  0.5627  0.1928
  948SOL    HW1 2885   2.658   1.724   1.068  0.6380 -1.2819 -0.7373
  948SOL    HW2 2886   2.723   1.694   1.202  1.1304 -1.6265 -1.0474
  949SOL     OW 2887   2.902   4.860   1.160 -0.5872  0.6425  0.5338
  949SOL    HW1 2888   2.881   4.917   1.234 -0.9848  1.1453  0.0375
  949SOL    HW2 2889   2.832   4.875   1.097 -0.0218  0.5393 -0.1317
  950SOL     OW 2890   2.557   1.351   0.378 -0.4448 -0.3877  0.4383
  950SOL    HW1 2891   2.470   1.385   0.399 -0.2964  0.1593  0.1993
  950SOL    HW2 2892   2.584   1.402   0.301 -0.5813 -1.6668 -0.4926
  951SOL     OW 2893   2.906   0.813   0.413 -0.1542  0.1770  0.1096
  951SOL    HW1 2894   2.863   0.738   0.372  1.0314 -0.3593 -0.2015
  951SOL    HW2 2895   2.998   0.804   0.388  0.0509  1.5987  0.2914
  952SOL     OW 2896   2.452   4.277   0.403 -0.0914  0.5998  0.0300
  952SOL    HW1 2897   2.476   4.370   0.408 -0.4195  0.7768 -1.2374
  952SOL    HW2 2898   2.370   4.271   0.453 -1.6758  1.6340 -2.2466
  953SOL     OW 2899   2.588   4.976   1.540  0.3324 -0.2890  0.5657
  953SOL    HW1 2900   2.658   5.006   1.597  1.0380 -0.3237 -0.2640
  953SOL    HW2 2901   2.616   5.002   1.452 -0.2575 -1.1097  0.1209
  954SOL     OW 2902   2.836   1.601   0.605  0.4058 -0.0219  0.3336
  954SOL    HW1 2903   2.813   1.509   0.586  1.4766 -0.3433  0.5277
  954SOL    HW2 2904   2.931   1.605   0.593  0.4587  0.9144  0.9607
  955SOL     OW 2905   2.232   1.117   0.473 -0.0427  0.1316 -0.9040
  955SOL    HW1 2906   2.209   1.076   0.390  0.4046 -0.7940 -0.5850
  955SOL    HW2 2907   2.234   1.211   0.453 -0.8914 -0.0003 -1.6930
  956SOL     OW 2908   3.220   1.998   0.584  0.3763 -0.1762  0.5239
  956SOL    HW1 2909   3.263   2.083   0.599 -0.4132  0.1051  1.2892
  956SOL    HW2 2910   3.137   2.005   0.630  0.2788 -1.3599  0.5601
  957SOL     OW 2911   1.934   5.261   1.494 -0.7589  0.0874 -0.0204
  957SOL    HW1 2912   1.918   5.173   1.462  0.5106  0.4688 -1.8037
  957SOL    HW2 2913   1.978   5.248   1.578 -2.1047 -0.9295  0.5722
  958SOL     OW 2914   2.576   4.096   1.405 -0.3684 -0.1114  0.1433
  958SOL    HW1 2915   2.595   4.036   1.477  0.8222  0.2744  0.1781
  958SOL    HW2 2916   2.629   4.173   1.424 -2.6295  1.4302  0.6468
  959SOL     OW 2917   2.530   0.472   0.351  0.1930  0.3423  0.0512
  959SOL    HW1 2918   2.564   0.527   0.422  0.5860 -1.2643  1.1861
  959SOL    HW2 2919   2.451   0.516   0.322  0.4778  1.4839  0.9338
  960SOL     OW 2920   2.621   4.110   0.561  0.6227 -0.1556 -0.2288
  960SOL    HW1 2921   2.549   4.144   0.507 -0.9610 -0.6803  1.4675
  960SOL    HW2 2922   2.696   4.111   0.502 -0.5943  1.0535 -1.8807
  961SOL     OW 2923   3.321   1.247   0.645 -0.8744  0.1959  0.7529
  961SOL    HW1 2924   3.254   1.225   0.580  0.2409  1.5913 -0.9476
  961SOL    HW2 2925   3.400   1.206   0.611 -0.2381  1.1031  1.1195
  962SOL     OW 2926   2.993   0.823   0.753  0.0890 -0.3983 -1.1434
  962SOL    HW1 2927   3.067   0.878   0.725 -0.3112  0.0202 -1.4097
  962SOL    HW2 2928   2.918   0.858   0.704  0.0474 -1.9983 -2.3004
  963SOL     OW 2929   3.735   0.758   0.741 -0.4879  0.3365 -0.4494
  963SOL    HW1 2930   3.690   0.753   0.825  1.2353 -0.0069  0.4845
  963SOL    HW2 2931   3.783   0.676   0.733  2.1427  1.7174 -0.0910
  964SOL     OW 2932   3.694   1.476   0.562 -0.3936 -0.0182 -0.2034
  964SOL    HW1 2933   3.778   1.481   0.606 -0.1585  0.2549 -0.6742
  964SOL    HW2 2934   3.698   1.396   0.509 -0.0571  0.4893 -0.9651
  965SOL     OW 2935   2.455   4.551   0.441  0.4646 -0.0244 -0.4201
  965SOL    HW1 2936   2.364   4.524   0.424  0.4513  0.3340 -0.9349
  965SOL    HW2 2937   2.459   4.642   0.411  1.2578 -0.3465 -1.3237
  966SOL     OW 2938   3.330   5.105   1.413  0.1884 -0.2597  0.4176
  966SOL    HW1 2939   3.385   5.048   1.467  0.5870  0.4398  0.7689
  966SOL    HW2 2940   3.287   5.164   1.476  0.0576  0.0556  0.0399
  967SOL     OW 2941   2.777   1.170   1.475  0.2478  0.0203  0.2919
  967SOL    HW1 2942   2.759   1.256   1.436  1.5141  0.4972  0.7285
  967SOL    HW2 2943   2.856   1.139   1.431 -0.5523 -1.2271 -0.3161
  968SOL     OW 2944   3.227   1.815   1.664 -0.6700  0.2093 -0.4942
  968SOL    HW1 2945   3.262   1.887   1.612  1.5258  0.2427  0.9156
  968SOL    HW2 2946   3.231   1.739   1.605 -0.2876  0.6754 -1.0799
  969SOL     OW 2947   2.767   1.413   1.220  0.3620  0.4699  0.7382
  969SOL    HW1 2948   2.703   1.437   1.153 -1.2219 -0.1075  1.9635
  969SOL    HW2 2949   2.834   1.364   1.173 -0.3247  0.7033 -0.5329
  970SOL     OW 2950   3.069   0.869   1.034  0.4901  0.0330  0.2252
  970SOL    HW1 2951   3.043   0.789   1.079  0.4601 -0.1332 -0.0847
  970SOL    HW2 2952   3.056   0.850   0.941  0.8088  0.2784  0.1273
  971SOL     OW 2953   2.597   4.541   1.478 -0.2836 -0.2689  0.0457
  971SOL    HW1 2954   2.513   4.582   1.457 -1.2304 -2.2765 -0.2991
  971SOL    HW2 2955   2.657   4.615   1.491 -2.4765  1.3145  2.1084
  972SOL     OW 2956   2.607   5.458   1.931  0.3549  0.1497 -0.3042
  972SOL    HW1 2957   2.607   5.404   1.851 -0.7113  0.5071 -0.5642
  972SOL    HW2 2958   2.576   5.543   1.902  0.0118  0.2986  0.4919
  973SOL     OW 2959   2.193   5.044   1.312  0.4436  0.3141 -0.2707
  973SOL    HW1 2960   2.107   5.036   1.354 -0.5555  1.5374 -1.9333
  973SOL    HW2 2961   2.254   5.062   1.384 -0.8897  0.5770  0.8329
  974SOL     OW 2962   2.889   4.591   1.224  0.3346 -0.1367  0.3205
  974SOL    HW1 2963   2.889   4.616   1.317  1.8473  0.7064  0.1113
  974SOL    HW2 2964   2.920   4.669   1.178  0.6141 -0.8943 -0.7967
  975SOL     OW 2965   1.934   1.336   1.369  0.5072  0.1012  0.2363
  975SOL    HW1 2966   1.860   1.279   1.388  0.3529 -0.3247 -1.4505
  975SOL    HW2 2967   1.894   1.420   1.347  0.5052 -0.1291 -0.6749
  976SOL     OW 2968   2.253   1.373   0.403 -0.0437  0.1173  0.2223
  976SOL    HW1 2969   2.213   1.435   0.465  1.9014  1.5650  0.1091
  976SOL    HW2 2970   2.228   1.407   0.317 -0.8613 -0.6098  0.1518
  977SOL     OW 2971   2.532   4.605   0.960  0.8841  0.3272 -0.2189
  977SOL    HW1 2972   2.499   4.535   0.904 -0.0891  0.1113  0.5813
  977SOL    HW2 2973   2.575   4.560   1.032 -1.0839  0.4321  1.1205
  978SOL     OW 2974   3.157   1.477   1.265 -0.5631 -0.1215  0.3698
  978SOL    HW1 2975   3.219   1.456   1.195  0.8683 -0.5303  1.6907
  978SOL    HW2 2976   3.085   1.415   1.253  0.0781 -0.7626 -0.2276
  979SOL     OW 2977   3.180   4.789   0.825  0.4191  0.5449  0.2470
  979SOL    HW1 2978   3.162   4.811   0.734 -1.6569  0.7241  0.6508
  979SOL    HW2 2979   3.180   4.693   0.827  2.7471  0.4806 -0.3009
  980SOL     OW 2980   1.747   1.499   1.000 -0.2205  0.4177  0.3213
  980SOL    HW1 2981   1.665   1.481   0.954 -0.5104 -2.0762  1.6215
  980SOL    HW2 2982   1.810   1.438   0.961  0.6709  1.3509  0.2693
  981SOL     OW 2983   2.317   5.144   1.721 -0.4158  0.4573  0.2393
  981SOL    HW1 2984   2.399   5.132   1.768  0.7124 -1.5546 -1.9905
  981SOL    HW2 2985   2.342   5.183   1.637 -1.4468 -1.4795 -1.0583
  982SOL     OW 2986   3.250   5.235   1.649  0.2399  0.2127 -0.0487
  982SOL    HW1 2987   3.322   5.236   1.712 -0.0263  0.9718  0.2628
  982SOL    HW2 2988   3.178   5.278   1.696 -1.1670 -2.5650  0.4959
  983SOL     OW 2989   2.396   4.647   2.121 -0.3032  0.5427  0.5017
  983SOL    HW1 2990   2.474   4.688   2.083 -0.2752  0.3058  0.3047
  983SOL    HW2 2991   2.350   4.610   2.047 -0.8941  1.1575  0.5497
  984SOL     OW 2992   2.417   4.040   1.861 -0.0775  0.8783  0.2741
  984SOL    HW1 2993   2.376   4.113   1.907 -2.1110  0.9739 -1.5262
  984SOL    HW2 2994   2.355   4.017   1.792  0.9113 -2.0239  0.2405
  985SOL     OW 2995   2.275   0.839   1.022  0.1431  0.4094  0.1037
  985SOL    HW1 2996   2.238   0.778   1.087 -1.3498  1.5584  0.3807
  985SOL    HW2 2997   2.365   0.809   1.010  0.1612 -0.4383  1.9819
  986SOL     OW 2998   3.146   1.109   1.133  0.0654  0.1021  0.1053
  986SOL    HW1 2999   3.112   1.026   1.099  0.1784  0.9161 -2.2223
  986SOL    HW2 3000   3.218   1.132   1.073 -0.7594  2.4532 -0.1166
  987SOL     OW 3001   2.634   0.924   0.402  0.1490 -0.4023 -0.2498
  987SOL    HW1 3002   2.638   0.838   0.444  3.4657 -0.3267 -0.1386
  987SOL    HW2 3003   2.691   0.916   0.326  0.7586  1.7554 -0.0836
  988SOL     OW 3004   2.072   4.691   1.829  0.6403  0.2809  0.3802
  988SOL    HW1 3005   2.031   4.612   1.865  1.9198  0.0299  1.3802
  988SOL    HW2 3006   2.166   4.670   1.827  0.6607 -0.0726 -4.0691
  989SOL     OW 3007   1.756   1.143   1.451  0.5477 -0.1949 -0.2489
  989SOL    HW1 3008   1.809   1.067   1.474  1.3652  0.2824 -0.4687
  989SOL    HW2 3009   1.672   1.129   1.493  0.0226 -2.1135 -1.8014
  990SOL     OW 3010   2.046   0.801   0.877  0.0081 -0.4916 -0.7201
  990SOL    HW1 3011   2.126   0.811   0.929  0.0960 -2.4645 -0.3961
  990SOL    HW2 3012   2.061   0.857   0.800  1.2138  0.0472 -0.1287
  991SOL     OW 3013   3.598   5.322   1.403  0.3077  0.0518  0.5462
  991SOL    HW1 3014   3.577   5.306   1.311  3.6041  2.2154 -0.7538
  991SOL    HW2 3015   3.613   5.235   1.439 -1.2417 -0.8691 -0.8436
  992SOL     OW 3016   2.160   4.262   0.061 -0.2113  0.3615 -0.3711
  992SOL    HW1 3017   2.103   4.338   0.072  0.8077  1.5334 -2.5835
  992SOL    HW2 3018   2.151   4.239  -0.032  1.9546 -0.1591 -0.5071
  993SOL     OW 3019   2.471   1.104   0.286  0.8268  0.3102 -0.3515
  993SOL    HW1 3020   2.476   1.195   0.316  0.5262  0.4411 -0.6892
  993SOL    HW2 3021   2.526   1.056   0.347  0.1816  0.5608  0.4428
  994SOL     OW 3022   2.827   1.423   1.610 -0.3352 -0.6006  0.2480
  994SOL    HW1 3023   2.733   1.437   1.626 -0.6853 -0.5379 -1.6355
  994SOL    HW2 3024   2.832   1.337   1.569  0.4727 -0.7015  0.5402
  995SOL     OW 3025   3.889   1.267   1.486 -0.0597  0.1114  0.3254
  995SOL    HW1 3026   3.869   1.217   1.407 -1.7984  0.4320  0.5370
  995SOL    HW2 3027   3.866   1.357   1.464  0.9899  0.4763  0.6687
  996SOL     OW 3028   2.040   5.207   1.756  0.3545  0.2060 -0.3442
  996SOL    HW1 3029   2.010   5.120   1.784  0.9602 -0.0373 -0.4465
  996SOL    HW2 3030   2.135   5.199   1.750  0.3500  0.6431 -1.1349
  997SOL     OW 3031   2.969   1.321   1.057  0.3964  0.0521  0.1150
  997SOL    HW1 3032   3.029   1.252   1.084 -1.7141 -1.4833  1.1220
  997SOL    HW2 3033   2.935   1.291   0.972  0.1188  0.2597  0.1508
  998SOL     OW 3034   1.998   4.877   0.937  0.1890  0.0501 -0.2758
  998SOL    HW1 3035   2.017   4.966   0.906 -1.1122  0.4366 -0.0317
  998SOL    HW2 3036   1.969   4.890   1.027 -1.0335 -0.4968 -0.5769
  999SOL     OW 3037   1.950   4.586   1.341 -0.3169  0.3596  0.4428
  999SOL    HW1 3038   2.013   4.591   1.269 -0.5754  1.0812  0.2619
  999SOL    HW2 3039   1.987   4.521   1.400  1.8002  2.3648  1.4971
 1000SOL     OW 3040   2.958   4.399   1.771 -0.1951 -0.0140  0.3987
 1000SOL    HW1 3041   3.017   4.390   1.846 -0.6944 -1.0764  0.6871
 1000SOL    HW2 3042   2.965   4.316   1.724  0.2705  0.7190 -0.8774
 1001SOL     OW 3043   2.810   4.323   1.182 -0.1441 -0.8751 -0.5164
 1001SOL    HW1 3044   2.800   4.309   1.277  2.1200  0.7950  0.0567
 1001SOL    HW2 3045   2.839   4.414   1.174  2.2165 -1.6866 -2.5642
 1002SOL     OW 3046   4.378   3.378   3.054  0.0010  0.4756 -0.1842
 1002SOL    HW1 3047   4.293   3.379   3.011 -0.8263  0.4248  1.3643
 1002SOL    HW2 3048   4.439   3.346   2.987 -1.1883  0.4976 -1.3126
 1003SOL     OW 3049   1.933   1.957   0.504 -0.0971 -0.2201  0.1767
 1003SOL    HW1 3050   1.922   1.950   0.599  0.4529 -0.0579  0.2594
 1003SOL    HW2 3051   1.991   2.033   0.493  1.6408 -1.5281 -0.1419
 1004SOL     OW 3052   2.372   1.373   1.255 -0.2791  0.6122  0.0222
 1004SOL    HW1 3053   2.341   1.300   1.201  1.1884  0.7137 -1.0355
 1004SOL    HW2 3054   2.373   1.448   1.196  0.1238  1.0213  0.5375
 1005SOL     OW 3055   2.214   4.581   1.192  0.6089 -0.2128 -0.3079
 1005SOL    HW1 3056   2.187   4.632   1.115  0.7474  1.1177  0.5044
 1005SOL    HW2 3057   2.208   4.490   1.162 -3.6296 -0.0793 -0.5935
 1006SOL     OW 3058   1.999   1.014   1.252 -0.2946  0.0667  0.3758
 1006SOL    HW1 3059   1.978   0.996   1.344  0.3431  1.2476  0.7686
 1006SOL    HW2 3060   2.092   0.995   1.244 -0.0635  1.1724  0.3016
 1007SOL     OW 3061   2.027   4.979   2.103  0.4787 -0.7383 -0.4199
 1007SOL    HW1 3062   2.080   4.965   2.025  1.2438 -0.6143  0.0651
 1007SOL    HW2 3063   1.983   5.063   2.087  1.3978 -0.2207 -0.3125
 1008SOL     OW 3064   3.001   5.288   1.768 -0.4944  0.3586 -0.0765
 1008SOL    HW1 3065   2.966   5.224   1.831  0.2610  2.4348  2.6694
 1008SOL    HW2 3066   2.950   5.368   1.785 -0.0269  1.1107 -1.9379
 1009SOL     OW 3067   3.585   4.980   1.072 -0.1413 -0.4461 -0.3882
 1009SOL    HW1 3068   3.612   5.072   1.074 -1.0285 -0.1874  0.9307
 1009SOL    HW2 3069   3.496   4.982   1.037 -0.2522 -0.7642 -0.1321
 1010SOL     OW 3070   2.157   1.205   1.447 -0.2651  0.2328 -0.9578
 1010SOL    HW1 3071   2.068   1.236   1.428 -0.6401  0.0639  0.4523
 1010SOL    HW2 3072   2.153   1.171   1.536  1.1932  0.0995 -0.9117
 1011SOL     OW 3073   2.587   0.801   0.976  0.1630 -0.6357  0.2576
 1011SOL    HW1 3074   2.623   0.832   1.060 -1.2045 -1.2506  1.1144
 1011SOL    HW2 3075   2.637   0.722   0.957  2.1477  0.8082 -0.8009
 1012SOL     OW 3076   2.718   1.987   1.407  0.1752 -0.2589  0.2362
 1012SOL    HW1 3077   2.676   1.921   1.462  1.8987 -1.2130  0.4799
 1012SOL    HW2 3078   2.736   2.060   1.466 -2.5850  0.9238 -0.2281
 1013SOL     OW 3079   2.288   0.529   0.241 -0.3196 -0.1149  0.0136
 1013SOL    HW1 3080   2.196   0.514   0.262 -0.3856 -0.3187 -0.4162
 1013SOL    HW2 3081   2.291   0.619   0.208 -0.0785  0.5279  1.6678
 1014SOL     OW 3082   1.561   5.365   1.603  0.2604  0.3807  0.5947
 1014SOL    HW1 3083   1.491   5.338   1.544  1.8153  0.9477 -1.6716
 1014SOL    HW2 3084   1.530   5.342   1.691 -1.3455 -2.3874 -0.5756
 1015SOL     OW 3085   3.040   1.150   1.383  0.1362  0.1590  0.4066
 1015SOL    HW1 3086   3.077   1.118   1.300  1.1525 -1.6870  1.5251
 1015SOL    HW2 3087   3.116   1.173   1.436 -0.5130  1.5423  0.7952
 1016SOL     OW 3088   3.621   0.531   0.058  0.0129  0.3071  0.4190
 1016SOL    HW1 3089   3.561   0.512  -0.015 -0.2960  0.9617  0.4924
 1016SOL    HW2 3090   3.708   0.525   0.019 -0.1502  0.7361 -0.0323
 1017SOL     OW 3091   3.485   1.632   1.029 -1.1221  0.2500 -0.1367
 1017SOL    HW1 3092   3.425   1.568   0.989  0.9478  0.2059 -3.4882
 1017SOL    HW2 3093   3.430   1.708   1.046 -2.3846 -0.0545 -2.4046
 1018SOL     OW 3094   3.142   1.958   0.920  0.1795 -0.6590  0.2843
 1018SOL    HW1 3095   3.211   2.024   0.911 -0.4239  0.1833  1.5252
 1018SOL    HW2 3096   3.173   1.901   0.991 -0.8052  0.3079  1.5355
 1019SOL     OW 3097   1.610   1.196   1.198 -1.0131  0.3927 -0.4743
 1019SOL    HW1 3098   1.561   1.239   1.268 -0.3605 -0.2994  0.4133
 1019SOL    HW2 3099   1.688   1.161   1.240 -2.3414 -3.2775 -0.7695
 1020SOL     OW 3100   2.577   1.545   1.697  0.6377  0.0091  0.3509
 1020SOL    HW1 3101   2.626   1.623   1.723 -0.2478  0.4536  0.7167
 1020SOL    HW2 3102   2.578   1.547   1.601 -1.5686  1.9259  0.2725
 1021SOL     OW 3103   3.361   4.649   0.604  0.1692  0.3940  0.5106
 1021SOL    HW1 3104   3.327   4.604   0.527  3.9865  0.5206 -1.4973
 1021SOL    HW2 3105   3.305   4.726   0.614 -1.0453 -0.1668 -1.5209
 1022SOL     OW 3106   3.345   1.607   0.314 -0.6247 -0.1224 -0.2705
 1022SOL    HW1 3107   3.304   1.525   0.342 -2.4175 -0.8651 -4.3232
 1022SOL    HW2 3108   3.282   1.675   0.336 -1.9408 -0.6696 -2.1480
 1023SOL     OW 3109   2.199   1.672   1.629 -0.2920  0.4413  0.1586
 1023SOL    HW1 3110   2.180   1.745   1.570  1.3288  1.0308  0.3164
 1023SOL    HW2 3111   2.191   1.594   1.573 -0.6040  0.8417 -0.3648
 1024SOL     OW 3112   2.998   1.139   0.780 -0.3356 -0.4974  0.3660
 1024SOL    HW1 3113   3.073   1.087   0.749  0.2757  2.1924 -3.5172
 1024SOL    HW2 3114   2.924   1.108   0.727 -0.7137  0.3213  0.4023
 1025SOL     OW 3115   2.682   5.318   1.687  0.5311 -0.3303  0.1491
 1025SOL    HW1 3116   2.711   5.395   1.638 -0.1263 -0.4015 -0.3610
 1025SOL    HW2 3117   2.729   5.245   1.648  1.2194 -0.1801  0.6891
 1026SOL     OW 3118   3.192   1.852   1.261 -0.2206  0.2439  0.4254
 1026SOL    HW1 3119   3.286   1.859   1.241 -0.6006 -0.4681 -1.8395
 1026SOL    HW2 3120   3.174   1.927   1.318  1.2736  1.6243 -0.8341
 1027SOL     OW 3121   3.455   4.580   1.014  0.3985  0.2691  0.3731
 1027SOL    HW1 3122   3.460   4.568   1.108  1.7462 -1.5247  0.1455
 1027SOL    HW2 3123   3.364   4.562   0.992  0.1541  0.3410  1.2878
 1028SOL     OW 3124   2.198   4.457   0.454 -0.3527  0.2455 -0.1557
 1028SOL    HW1 3125   2.126   4.519   0.441 -0.2874  0.8500  1.9046
 1028SOL    HW2 3126   2.172   4.405   0.530  1.0936  0.0632  0.2571
 1029SOL     OW 3127   2.796   0.937   1.104  0.2274  0.2208 -0.4152
 1029SOL    HW1 3128   2.757   1.015   1.064  0.4631  1.0992  1.0099
 1029SOL    HW2 3129   2.890   0.947   1.090  0.3675  0.8838  0.9447
 1030SOL     OW 3130   2.400   1.177   1.583 -0.0788  0.0017 -0.6713
 1030SOL    HW1 3131   2.442   1.237   1.644  1.5325  0.0481 -1.7498
 1030SOL    HW2 3132   2.350   1.233   1.524 -1.8469 -0.0621  0.6981
 1031SOL     OW 3133   3.272   1.201   1.556 -0.0905  0.7247  0.5340
 1031SOL    HW1 3134   3.362   1.191   1.525 -0.1657 -1.1986  0.8004
 1031SOL    HW2 3135   3.268   1.150   1.636 -1.8557 -0.7921 -0.4364
 1032SOL     OW 3136   2.666   1.332   0.632 -0.6407 -0.2622 -0.3409
 1032SOL    HW1 3137   2.658   1.342   0.537  1.5537  2.2810 -0.3659
 1032SOL    HW2 3138   2.588   1.283   0.657 -1.5935 -0.5193 -3.3637
 1033SOL     OW 3139   2.349   4.810   0.892  0.5887 -0.3874  0.1891
 1033SOL    HW1 3140   2.267   4.763   0.906  0.0481  0.2293 -0.8014
 1033SOL    HW2 3141   2.417   4.745   0.911 -0.1410 -1.4097 -0.5484
 1034SOL     OW 3142   2.598   1.695   0.511  0.2261 -0.1239 -0.5320
 1034SOL    HW1 3143   2.680   1.662   0.548 -0.1287  0.8020  1.1897
 1034SOL    HW2 3144   2.621   1.724   0.422  1.4132 -1.2101 -0.6006
 1035SOL     OW 3145   1.541   1.108   0.427  0.3011  0.5724 -0.0536
 1035SOL    HW1 3146   1.505   1.182   0.475  1.1799 -0.3614  2.1677
 1035SOL    HW2 3147   1.635   1.123   0.426  0.6456 -1.1542  1.6846
 1036SOL     OW 3148   1.505   1.443   1.936 -0.5358  0.0394  0.6258
 1036SOL    HW1 3149   1.558   1.408   1.864 -0.9770  0.3487  0.1378
 1036SOL    HW2 3150   1.422   1.396   1.931 -0.7266  0.3626  0.6592
 1037SOL     OW 3151   2.402   4.798   1.666  0.0398  0.5262  0.1162
 1037SOL    HW1 3152   2.377   4.738   1.596 -2.3733  0.1067  1.2579
 1037SOL    HW2 3153   2.422   4.880   1.621  3.4216 -0.9628 -1.4856
 1038SOL     OW 3154   1.850   0.530   0.031  0.2283 -0.9220 -0.0208
 1038SOL    HW1 3155   1.823   0.497   0.116 -0.5507 -1.4017 -0.4346
 1038SOL    HW2 3156   1.930   0.481   0.010  0.6242 -0.5438  0.5816
 1039SOL     OW 3157   3.091   5.036   1.306  0.2432 -0.1494  0.7282
 1039SOL    HW1 3158   3.049   5.072   1.384  0.0250 -1.7541  1.3888
 1039SOL    HW2 3159   3.185   5.038   1.327  0.1610 -0.9323  1.2073
 1040SOL     OW 3160   3.629   2.131   2.998  0.3582 -0.2928  0.8615
 1040SOL    HW1 3161   3.696   2.076   2.955 -1.4664 -0.1562 -2.5053
 1040SOL    HW2 3162   3.654   2.221   2.975 -0.5055 -0.1992  0.2309
 1041SOL     OW 3163   2.435   5.254   1.521 -0.2158  0.0018 -0.1979
 1041SOL    HW1 3164   2.423   5.345   1.547 -2.6111  0.1798 -1.6340
 1041SOL    HW2 3165   2.524   5.233   1.549 -0.1647  2.2423  1.6469
 1042SOL     OW 3166   2.969   1.712   1.335 -0.3391  0.2758  0.3886
 1042SOL    HW1 3167   3.040   1.771   1.307 -0.6750  1.1211  1.2536
 1042SOL    HW2 3168   3.011   1.626   1.341  0.5367  0.6986  0.5465
 1043SOL     OW 3169   2.811   5.041   1.708  0.0415  0.3277  0.0898
 1043SOL    HW1 3170   2.850   5.058   1.794  0.4546 -1.0107  0.1836
 1043SOL    HW2 3171   2.878   4.992   1.661 -0.6769 -0.0434 -0.5541
 1044SOL     OW 3172   3.270   1.473   1.883  0.1593  0.0667  0.2278
 1044SOL    HW1 3173   3.214   1.454   1.958  0.8379 -1.5964  0.3497
 1044SOL    HW2 3174   3.218   1.447   1.807  1.0521 -2.3840  0.3901
 1045SOL     OW 3175   2.385   1.838   1.718  0.3028  0.1640  0.4816
 1045SOL    HW1 3176   2.325   1.767   1.693 -0.6361  1.2440 -0.4881
 1045SOL    HW2 3177   2.447   1.843   1.645  0.4703  0.2460  0.6290
 1046SOL     OW 3178   3.345   4.957   0.995 -0.2869 -0.0707 -0.9419
 1046SOL    HW1 3179   3.260   4.917   1.009  0.1544 -0.9401 -0.6985
 1046SOL    HW2 3180   3.349   4.972   0.900 -0.5119 -0.4841 -1.0178
 1047SOL     OW 3181   3.138   0.499   0.574 -0.3891 -0.3152 -0.0741
 1047SOL    HW1 3182   3.064   0.449   0.539 -1.8005  1.3929  0.3133
 1047SOL    HW2 3183   3.142   0.577   0.519  0.4732  0.1139  0.5773
 1048SOL     OW 3184   2.608   0.662   0.528 -0.3361 -0.2483 -0.3537
 1048SOL    HW1 3185   2.524   0.683   0.567  0.3424  2.7532 -0.2644
 1048SOL    HW2 3186   2.672   0.674   0.598  0.4676  0.8482 -1.2380
 1049SOL     OW 3187   3.787   4.888   1.610 -0.1065 -0.6052  0.2758
 1049SOL    HW1 3188   3.798   4.982   1.621 -0.9423 -0.2956 -1.2007
 1049SOL    HW2 3189   3.841   4.849   1.679 -1.1968  0.9572  2.1099
 1050SOL     OW 3190   3.487   4.967   1.611 -0.0615  0.4034  0.5969
 1050SOL    HW1 3191   3.470   5.021   1.689 -1.2317 -1.3884  1.6680
 1050SOL    HW2 3192   3.582   4.961   1.607  0.1152  2.3329  0.5426
 1051SOL     OW 3193   2.620   1.403   0.967 -0.4986 -0.3925  0.1940
 1051SOL    HW1 3194   2.617   1.398   0.871  0.3532  0.1563  0.1312
 1051SOL    HW2 3195   2.578   1.486   0.988 -0.3544 -0.3420  0.2792
 1052SOL     OW 3196   2.515   0.961   0.776  0.1697  0.3533 -0.8576
 1052SOL    HW1 3197   2.489   0.875   0.743  0.4659  0.0231 -0.2396
 1052SOL    HW2 3198   2.573   0.942   0.850 -0.5834  1.0853 -0.0637
 1053SOL     OW 3199   3.298   1.129   0.918  0.3246 -0.4059 -0.6324
 1053SOL    HW1 3200   3.301   1.167   0.830  2.0072 -0.1623 -0.4999
 1053SOL    HW2 3201   3.360   1.057   0.915 -0.4882 -1.1642  0.0437
 1054SOL     OW 3202   2.125   1.515   1.883 -0.2450  0.4980  0.1804
 1054SOL    HW1 3203   2.168   1.550   1.805  1.8816  0.2247  1.1644
 1054SOL    HW2 3204   2.086   1.592   1.925 -0.4974  0.7973 -0.5854
 1055SOL     OW 3205   2.150   0.696   0.521 -0.1829 -0.1498  0.0384
 1055SOL    HW1 3206   2.163   0.791   0.525  0.0464 -0.1813  0.0654
 1055SOL    HW2 3207   2.062   0.685   0.485 -1.0281  0.0994  1.8863
 1056SOL     OW 3208   2.092   1.760   2.198  0.1672  0.4169 -0.1334
 1056SOL    HW1 3209   2.129   1.801   2.120  0.1135 -0.0523 -0.4080
 1056SOL    HW2 3210   2.168   1.741   2.253  0.1195  1.8552  0.4886
 1057SOL     OW 3211   3.697   4.569   1.487 -0.3077  1.3512 -0.7446
 1057SOL    HW1 3212   3.630   4.591   1.552  0.1568  4.1709 -1.0884
 1057SOL    HW2 3213   3.757   4.511   1.533 -0.9571  1.8289  0.7696
 1058SOL     OW 3214   2.426   4.407   0.794  0.8188 -0.3084 -0.4151
 1058SOL    HW1 3215   2.388   4.468   0.730  2.0206  0.7850 -0.1334
 1058SOL    HW2 3216   2.393   4.321   0.769 -2.7007  0.6463  0.4637
 1059SOL     OW 3217   3.260   1.445   1.007  0.1215  0.5984 -0.7123
 1059SOL    HW1 3218   3.245   1.367   0.954 -2.8439  0.1766  0.5883
 1059SOL    HW2 3219   3.193   1.507   0.979 -1.7848  0.2367  2.5815
 1060SOL     OW 3220   1.955   4.973   1.442  0.2706 -0.4158 -0.1290
 1060SOL    HW1 3221   1.957   4.973   1.538 -1.9611  0.4943 -0.0241
 1060SOL    HW2 3222   1.919   4.887   1.419  0.3273 -0.4399 -0.1299
 1061SOL     OW 3223   2.731   1.774   0.839 -0.4346 -0.0024  0.5230
 1061SOL    HW1 3224   2.780   1.760   0.920 -0.2215 -0.1591  0.3658
 1061SOL    HW2 3225   2.769   1.713   0.776 -0.5733  0.1467  0.2917
 1062SOL     OW 3226   3.649   4.790   1.278  0.0330 -0.2710  0.0777
 1062SOL    HW1 3227   3.650   4.866   1.220  0.8276 -0.3909 -0.0706
 1062SOL    HW2 3228   3.591   4.727   1.235  2.4857 -1.3526 -1.8922
 1063SOL     OW 3229   2.994   4.356   0.975  0.1377  0.1629  0.1323
 1063SOL    HW1 3230   2.955   4.319   0.896  2.8112 -0.6668 -0.9322
 1063SOL    HW2 3231   2.929   4.341   1.043 -1.9902  0.3092 -1.7539
 1064SOL     OW 3232   2.219   1.732   1.205  0.0671  0.5496  0.4874
 1064SOL    HW1 3233   2.218   1.642   1.236 -0.4600  0.6919  0.9169
 1064SOL    HW2 3234   2.279   1.732   1.131 -1.2347 -0.5195 -0.6222
 1065SOL     OW 3235   2.836   1.045   0.559  0.0629 -0.7377  0.3799
 1065SOL    HW1 3236   2.740   1.046   0.558  0.0406  0.6507 -1.2865
 1065SOL    HW2 3237   2.860   0.972   0.502  0.0348 -1.5743  1.4087
 1066SOL     OW 3238   2.867   0.597   0.719  0.3049  0.4220  0.4419
 1066SOL    HW1 3239   2.912   0.567   0.640  0.2233 -1.0867  0.9288
 1066SOL    HW2 3240   2.915   0.676   0.746  1.6356 -0.2120  0.0333
 1067SOL     OW 3241   1.751   1.255   0.130  0.6471 -0.2149 -0.9380
 1067SOL    HW1 3242   1.702   1.190   0.079  0.2368 -0.6706 -0.0037
 1067SOL    HW2 3243   1.689   1.284   0.197  1.9852 -1.7699  1.1172
 1068SOL     OW 3244   1.953   4.691   2.159 -0.3039  0.1474 -0.1368
 1068SOL    HW1 3245   1.869   4.719   2.194 -0.7013 -0.8468 -0.2761
 1068SOL    HW2 3246   2.001   4.773   2.143 -0.8688  0.6844  0.8448
 1069SOL     OW 3247   2.170   5.008   2.694  0.8582  0.1400  0.5800
 1069SOL    HW1 3248   2.252   5.051   2.720  0.7999 -0.6118  2.1261
 1069SOL    HW2 3249   2.184   4.981   2.603  2.2983  0.0847  0.8008
 1070SOL     OW 3250   1.736   4.475   2.350  0.2417  0.2162 -0.6374
 1070SOL    HW1 3251   1.703   4.538   2.413  1.6345  1.0449 -0.6828
 1070SOL    HW2 3252   1.723   4.390   2.391  1.5523  0.7632  1.0161
 1071SOL     OW 3253   0.533   3.439   0.121  0.7907  0.7727 -0.0698
 1071SOL    HW1 3254   0.518   3.346   0.104  0.9689  0.9843 -1.5364
 1071SOL    HW2 3255   0.577   3.471   0.042 -0.5937  2.4155 -0.2365
 1072SOL     OW 3256   3.242   5.832   2.191  0.1882  0.0250 -0.2984
 1072SOL    HW1 3257   3.154   5.824   2.154 -0.3001  1.0006  0.5766
 1072SOL    HW2 3258   3.244   5.921   2.227  1.8441  0.3203 -1.0512
 1073SOL     OW 3259   2.624   4.898   2.373  0.3482 -0.1454 -0.1198
 1073SOL    HW1 3260   2.620   4.803   2.372  1.2833 -0.1884 -0.0283
 1073SOL    HW2 3261   2.569   4.924   2.447  1.1282 -0.6705  0.6623
 1074SOL     OW 3262   3.378   4.603   1.883 -0.5026 -0.0185 -0.3413
 1074SOL    HW1 3263   3.294   4.644   1.863  0.1204  0.5102 -2.0784
 1074SOL    HW2 3264   3.359   4.543   1.955 -2.0419  1.1874  0.3309
 1075SOL     OW 3265   2.383   5.528   3.024  0.2206  0.1764 -0.4406
 1075SOL    HW1 3266   2.345   5.484   3.101  1.3057  0.1873  0.1315
 1075SOL    HW2 3267   2.454   5.470   2.996  0.4913  0.6694 -0.8032
 1076SOL     OW 3268   2.372   5.035   2.453 -0.8371  0.7270  0.0353
 1076SOL    HW1 3269   2.386   5.111   2.510  0.5618  1.6211 -1.4308
 1076SOL    HW2 3270   2.328   5.070   2.376 -0.9427 -0.1117 -0.2942
 1077SOL     OW 3271   1.906   6.007   2.565  0.5152 -0.0289 -0.7867
 1077SOL    HW1 3272   1.960   6.016   2.643  0.9045 -1.0329 -0.9219
 1077SOL    HW2 3273   1.816   6.023   2.596  0.6230 -0.7640 -0.0537
 1078SOL     OW 3274   3.334   4.737   2.438 -0.3845  0.0710  0.1572
 1078SOL    HW1 3275   3.258   4.756   2.493 -2.2693 -0.9919 -1.8919
 1078SOL    HW2 3276   3.300   4.742   2.348  2.0066 -0.3505 -0.8446
 1079SOL     OW 3277   1.848   5.723   2.418 -0.2717  0.7195  0.0864
 1079SOL    HW1 3278   1.845   5.804   2.469  0.7275  0.1406  1.1254
 1079SOL    HW2 3279   1.926   5.732   2.363  0.1467  0.2749  0.5865
 1080SOL     OW 3280   1.731   5.513   2.169  0.4492 -0.0492 -0.3743
 1080SOL    HW1 3281   1.745   5.518   2.075  0.9850 -2.7735 -0.5279
 1080SOL    HW2 3282   1.819   5.509   2.206  0.2298 -0.8462  0.0749
 1081SOL     OW 3283   0.177   2.981   0.161 -0.1306 -0.3797 -0.4144
 1081SOL    HW1 3284   0.133   3.061   0.188  1.0758  0.6330 -1.3601
 1081SOL    HW2 3285   0.145   2.965   0.072 -0.0039 -0.7067 -0.4047
 1082SOL     OW 3286   2.368   5.703   2.295 -0.3331 -1.0676 -0.0498
 1082SOL    HW1 3287   2.363   5.701   2.390 -1.8801  1.5897  0.0362
 1082SOL    HW2 3288   2.280   5.728   2.267  0.0839 -1.8016 -2.2019
 1083SOL     OW 3289   5.776   4.750   2.283  1.1073  0.6801  0.1433
 1083SOL    HW1 3290   5.734   4.725   2.365  0.5980  1.4597  0.1240
 1083SOL    HW2 3291   5.764   4.845   2.278  0.5064  0.5467 -1.1843
 1084SOL     OW 3292   3.614   1.820   2.227 -0.4399 -0.5682  0.5935
 1084SOL    HW1 3293   3.576   1.750   2.280  0.4726 -0.2344  1.7303
 1084SOL    HW2 3294   3.658   1.877   2.290 -2.1747  1.7527 -0.1453
 1085SOL     OW 3295   1.790   1.633   1.676 -0.2393  0.0498 -0.2788
 1085SOL    HW1 3296   1.826   1.695   1.740  0.1737 -0.0311 -0.4263
 1085SOL    HW2 3297   1.825   1.664   1.592  0.9045 -1.0308 -0.2339
 1086SOL     OW 3298   3.427   5.215   2.475 -0.3999 -0.0934 -0.2620
 1086SOL    HW1 3299   3.483   5.251   2.544  0.1825  0.0719 -0.8124
 1086SOL    HW2 3300   3.467   5.244   2.393 -0.9451 -0.4874 -0.6823
 1087SOL     OW 3301   3.632   5.342   2.243  0.1087  0.4765 -0.2505
 1087SOL    HW1 3302   3.613   5.262   2.193  0.7094  0.1502  0.0400
 1087SOL    HW2 3303   3.623   5.412   2.178  0.7102  0.0735 -0.7837
 1088SOL     OW 3304   2.552   5.486   2.648 -0.0462  0.1504  0.2992
 1088SOL    HW1 3305   2.587   5.428   2.715 -0.6625 -0.3706  0.1849
 1088SOL    HW2 3306   2.628   5.512   2.596  0.1407 -1.2806 -0.2029
 1089SOL     OW 3307   2.999   5.526   3.037  0.1534  0.2730  0.2193
 1089SOL    HW1 3308   2.968   5.437   3.016  0.5280  0.7097 -2.6109
 1089SOL    HW2 3309   2.931   5.583   3.003  0.6040  1.1239  0.7147
 1090SOL     OW 3310   2.413   4.405   2.373 -0.0664  0.2500  0.3421
 1090SOL    HW1 3311   2.395   4.320   2.413 -2.3139  0.1860 -0.6288
 1090SOL    HW2 3312   2.327   4.435   2.343  1.0951  1.5418 -1.9157
 1091SOL     OW 3313   3.280   5.123   2.086  0.0917  0.3257  0.1747
 1091SOL    HW1 3314   3.359   5.089   2.128 -0.2832 -0.3693  0.3264
 1091SOL    HW2 3315   3.236   5.172   2.155  0.7559  1.3611 -0.1099
 1092SOL     OW 3316   2.914   6.044   2.864  0.3341 -0.1603 -0.2792
 1092SOL    HW1 3317   2.916   6.055   2.959 -0.9834 -0.1946 -0.2283
 1092SOL    HW2 3318   2.839   5.986   2.849  1.7908 -1.8871 -1.1953
 1093SOL     OW 3319   3.538   6.181   2.606  0.2199  0.1610 -1.0757
 1093SOL    HW1 3320   3.523   6.124   2.531 -2.1660 -1.0938  0.2214
 1093SOL    HW2 3321   3.612   6.142   2.652  0.6095 -0.0325 -1.8649
 1094SOL     OW 3322   2.243   5.452   2.182  0.1484 -0.2347 -0.0915
 1094SOL    HW1 3323   2.287   5.518   2.236 -0.2703  0.3900 -0.5016
 1094SOL    HW2 3324   2.206   5.502   2.109 -1.4530 -0.7070  0.3671
 1095SOL     OW 3325   3.016   4.609   2.418 -0.6392  0.0310 -0.2004
 1095SOL    HW1 3326   3.038   4.688   2.467  0.9293 -1.9671  2.6093
 1095SOL    HW2 3327   2.982   4.641   2.334 -0.3069  3.6259  0.8818
 1096SOL     OW 3328   3.487   1.634   1.897 -0.2903  0.1317 -0.2717
 1096SOL    HW1 3329   3.431   1.558   1.882  0.2751 -0.3112 -0.1986
 1096SOL    HW2 3330   3.429   1.710   1.889 -0.8366 -0.3041 -0.4583
 1097SOL     OW 3331   3.024   4.860   2.174 -0.5718  0.3028  0.4996
 1097SOL    HW1 3332   3.025   4.936   2.232 -0.4148  1.8413 -1.4638
 1097SOL    HW2 3333   3.115   4.829   2.173 -0.7296 -0.2868  1.6972
 1098SOL     OW 3334   4.205   3.042   0.113 -0.1858 -0.5394  0.5341
 1098SOL    HW1 3335   4.197   2.975   0.045  1.2223  0.4545 -0.6720
 1098SOL    HW2 3336   4.178   2.997   0.194  0.3514 -2.4543 -0.2873
 1099SOL     OW 3337   2.158   4.501   2.228  0.2346 -0.1413 -0.7523
 1099SOL    HW1 3338   2.241   4.544   2.207 -0.4735  0.8464 -1.6929
 1099SOL    HW2 3339   2.092   4.570   2.216 -0.9000 -1.3578 -1.8459
 1100SOL     OW 3340   3.157   5.529   2.540 -0.0592  0.1467  0.2862
 1100SOL    HW1 3341   3.165   5.600   2.603 -0.5347  0.9418 -0.5381
 1100SOL    HW2 3342   3.147   5.572   2.455 -0.7212 -0.8946 -0.1844
 1101SOL     OW 3343   2.287   4.780   2.336 -0.5764  0.1891  0.3763
 1101SOL    HW1 3344   2.316   4.871   2.335 -0.8020  0.2629  0.3610
 1101SOL    HW2 3345   2.337   4.737   2.266  1.4755 -0.3287  2.0749
 1102SOL     OW 3346   2.768   5.782   2.413 -0.5917 -0.1727 -0.0897
 1102SOL    HW1 3347   2.757   5.840   2.338 -1.8176 -2.1338 -1.5402
 1102SOL    HW2 3348   2.732   5.831   2.487 -2.6744  0.5205 -1.4683
 1103SOL     OW 3349   0.161   4.325   0.058 -0.1138  0.3929 -0.2554
 1103SOL    HW1 3350   0.228   4.352   0.121 -1.2455 -0.4069  1.3644
 1103SOL    HW2 3351   0.206   4.327  -0.027  1.5260  1.3112  0.5757
 1104SOL     OW 3352   3.537   5.573   2.436 -0.1837  0.1176  0.4749
 1104SOL    HW1 3353   3.503   5.592   2.349  3.1776  2.0796 -0.5850
 1104SOL    HW2 3354   3.517   5.480   2.450 -0.0517 -0.5113 -2.7907
 1105SOL     OW 3355   1.959   5.425   2.293 -0.3875  0.2055 -0.0370
 1105SOL    HW1 3356   2.049   5.432   2.263 -0.9267  1.4357 -1.5160
 1105SOL    HW2 3357   1.963   5.439   2.387  0.8791  1.1991 -0.2124
 1106SOL     OW 3358   3.162   5.295   2.393  0.3220  0.1373  0.3298
 1106SOL    HW1 3359   3.235   5.252   2.436 -0.1348  0.3087  1.3038
 1106SOL    HW2 3360   3.151   5.378   2.440 -0.0244  0.4550 -0.2877
 1107SOL     OW 3361   3.011   1.490   2.029  0.1767  0.1983  0.6271
 1107SOL    HW1 3362   2.917   1.479   2.041  0.0343  0.4834 -0.1877
 1107SOL    HW2 3363   3.020   1.569   1.977  0.7534 -1.0246 -1.2138
 1108SOL     OW 3364   3.710   5.544   1.793  0.3422 -0.5057 -0.5984
 1108SOL    HW1 3365   3.723   5.574   1.703  1.7663 -1.4593 -0.7435
 1108SOL    HW2 3366   3.615   5.540   1.803  0.1585  0.3884 -1.7854
 1109SOL     OW 3367   2.280   1.782   2.407 -0.1136 -0.0346 -0.2786
 1109SOL    HW1 3368   2.336   1.830   2.467  2.3436 -1.8633 -0.9303
 1109SOL    HW2 3369   2.241   1.713   2.460  1.0662 -0.8724 -0.4386
 1110SOL     OW 3370   3.103   4.316   1.990 -0.7282 -0.7603 -0.0269
 1110SOL    HW1 3371   3.071   4.243   2.042 -1.7371 -0.4057 -0.1136
 1110SOL    HW2 3372   3.183   4.284   1.949 -0.0450 -1.1120  1.5474
 1111SOL     OW 3373   2.471   5.930   2.608 -0.0443 -0.0921  0.4351
 1111SOL    HW1 3374   2.421   5.860   2.565  0.4627 -0.3674  0.2773
 1111SOL    HW2 3375   2.423   5.949   2.688 -0.2344 -0.5639  0.4344
 1112SOL     OW 3376   2.044   5.281   2.748 -0.4272  0.0698 -0.0354
 1112SOL    HW1 3377   2.056   5.190   2.723  0.0328 -0.3228  1.4836
 1112SOL    HW2 3378   2.113   5.328   2.702 -0.9522 -0.2659 -1.1875
 1113SOL     OW 3379   2.214   4.078   2.168 -0.2159 -0.1641 -0.0319
 1113SOL    HW1 3380   2.204   4.020   2.243  0.2703 -0.1503  0.0457
 1113SOL    HW2 3381   2.308   4.077   2.149 -0.3097 -0.0330 -0.5312
 1114SOL     OW 3382   0.544   3.135   0.115  0.2119  0.3438 -0.0399
 1114SOL    HW1 3383   0.485   3.125   0.190 -1.0358 -0.6596 -1.0880
 1114SOL    HW2 3384   0.587   3.050   0.107 -0.5921  0.0180 -1.1645
 1115SOL     OW 3385   2.806   4.826   2.868  0.2833  0.0081 -0.0801
 1115SOL    HW1 3386   2.841   4.763   2.805  1.1102 -0.5349  0.9082
 1115SOL    HW2 3387   2.778   4.773   2.942 -0.8955  0.6248 -0.0590
 1116SOL     OW 3388   2.493   4.697   2.574  0.2055  0.0148 -0.0845
 1116SOL    HW1 3389   2.543   4.667   2.498  1.5224  2.5811 -0.3636
 1116SOL    HW2 3390   2.415   4.737   2.537 -0.0868 -0.4048  0.0713
 1117SOL     OW 3391   3.413   5.543   1.810  0.4131  0.7388 -0.2534
 1117SOL    HW1 3392   3.353   5.498   1.871 -0.3873  1.0048 -0.8288
 1117SOL    HW2 3393   3.386   5.635   1.814  0.5677  0.8069 -0.7742
 1118SOL     OW 3394   2.077   4.231   2.399  0.0940 -0.3824 -0.5839
 1118SOL    HW1 3395   2.103   4.217   2.309  1.4346  0.5317 -0.3653
 1118SOL    HW2 3396   2.153   4.205   2.451  0.0512  0.8806  0.1562
 1119SOL     OW 3397   2.805   4.664   2.138 -0.2326 -0.6362 -0.0334
 1119SOL    HW1 3398   2.729   4.713   2.108  0.4070 -0.1246 -0.8910
 1119SOL    HW2 3399   2.877   4.728   2.136  0.3183 -1.2305  0.2731
 1120SOL     OW 3400   3.259   1.751   2.333  0.2850 -0.2317  0.5342
 1120SOL    HW1 3401   3.273   1.837   2.293  1.2718  0.2596  1.8549
 1120SOL    HW2 3402   3.223   1.770   2.419 -2.1187 -1.2772 -0.1630
 1121SOL     OW 3403   2.168   5.531   2.788  0.2146 -0.0216 -0.2442
 1121SOL    HW1 3404   2.250   5.493   2.819 -0.0151 -2.5252 -2.4061
 1121SOL    HW2 3405   2.119   5.550   2.868  1.8404 -0.9540  1.0377
 1122SOL     OW 3406   3.173   5.988   2.750 -0.1738 -0.3632  0.0479
 1122SOL    HW1 3407   3.213   6.073   2.734 -1.2940 -0.1524 -2.0043
 1122SOL    HW2 3408   3.091   6.009   2.795  0.2963 -0.5178  1.0072
 1123SOL     OW 3409   2.742   4.735   1.581  0.8388 -0.1112  0.2206
 1123SOL    HW1 3410   2.693   4.817   1.577 -1.0610 -1.1120  1.3794
 1123SOL    HW2 3411   2.753   4.719   1.675  1.2210 -1.1348  0.0079
 1124SOL     OW 3412   4.094   2.853   0.309 -0.2424  0.5200  0.7729
 1124SOL    HW1 3413   4.055   2.772   0.277  1.3467  0.9161 -2.5899
 1124SOL    HW2 3414   4.155   2.825   0.377 -0.3962 -1.0313  0.3080
 1125SOL     OW 3415   2.588   4.622   2.349 -0.6972 -0.1346  0.5224
 1125SOL    HW1 3416   2.658   4.618   2.284  1.1000 -0.5390  2.4080
 1125SOL    HW2 3417   2.545   4.537   2.343 -0.6355 -0.1231 -0.2050
 1126SOL     OW 3418   2.531   4.437   2.679 -0.8639  0.1466  0.2395
 1126SOL    HW1 3419   2.527   4.532   2.671 -0.5256  0.1701  0.2996
 1126SOL    HW2 3420   2.521   4.404   2.590 -0.8433  0.2462  0.2009
 1127SOL     OW 3421   2.960   5.272   2.717 -0.4998 -0.2314 -0.1928
 1127SOL    HW1 3422   3.054   5.265   2.731 -0.2293 -1.2912 -2.1395
 1127SOL    HW2 3423   2.943   5.219   2.639 -2.4282  1.3629 -0.9638
 1128SOL     OW 3424   4.243   4.480   2.155 -0.4033 -0.5722 -0.3281
 1128SOL    HW1 3425   4.331   4.503   2.123  0.5363 -2.1938  0.9275
 1128SOL    HW2 3426   4.221   4.550   2.216  0.6117 -0.8161  0.3505
 1129SOL     OW 3427   1.890   1.752   1.957  0.2718 -0.0207  0.1412
 1129SOL    HW1 3428   1.848   1.835   1.936  0.6074 -0.1802 -1.3130
 1129SOL    HW2 3429   1.932   1.766   2.041  1.1584  1.6118 -0.5357
 1130SOL     OW 3430   3.627   5.882   2.150  0.3719  0.4980  0.2226
 1130SOL    HW1 3431   3.574   5.878   2.230 -0.8111 -1.8065 -0.5868
 1130SOL    HW2 3432   3.578   5.940   2.092 -1.5832 -1.8339 -0.6235
 1131SOL     OW 3433   3.428   5.116   1.825 -0.4130  0.3093 -0.0003
 1131SOL    HW1 3434   3.505   5.165   1.855  0.4440 -0.4769 -0.8616
 1131SOL    HW2 3435   3.362   5.131   1.893  0.7846  0.2749  1.2042
 1132SOL     OW 3436   2.359   4.998   2.111  0.2622 -0.0905  0.4194
 1132SOL    HW1 3437   2.308   4.964   2.037  0.3992 -0.3745  0.4567
 1132SOL    HW2 3438   2.438   5.034   2.070  0.2694 -0.1144  0.4118
 1133SOL     OW 3439   3.312   5.527   2.849  0.1705 -0.0533  0.4884
 1133SOL    HW1 3440   3.280   5.574   2.771  2.0132  0.1077 -0.2066
 1133SOL    HW2 3441   3.302   5.591   2.920  0.7478  0.6915 -0.0776
 1134SOL     OW 3442   2.701   5.102   2.179  0.0386 -0.2304  0.1862
 1134SOL    HW1 3443   2.721   5.179   2.231  0.2497 -0.6137  0.6892
 1134SOL    HW2 3444   2.672   5.037   2.243 -0.5735 -0.4281 -0.2768
 1135SOL     OW 3445   4.386   3.270   0.170  0.2209 -0.0700  0.0511
 1135SOL    HW1 3446   4.362   3.271   0.263  0.8630  1.7304  0.2150
 1135SOL    HW2 3447   4.302   3.272   0.124 -0.0706  0.4412  0.5979
 1136SOL     OW 3448   3.947   3.571   0.366 -0.1982  0.3737  0.1508
 1136SOL    HW1 3449   3.974   3.639   0.304 -1.0469 -0.5816 -1.3189
 1136SOL    HW2 3450   4.009   3.499   0.352  0.1448  0.4669  1.0686
 1137SOL     OW 3451   6.345   5.437   3.037  0.0997 -0.2129 -0.5369
 1137SOL    HW1 3452   6.263   5.428   2.989 -0.9127 -0.1878  1.1226
 1137SOL    HW2 3453   6.367   5.348   3.064  2.6023 -0.8345 -3.9679
 1138SOL     OW 3454   2.360   5.286   2.625 -0.2633  0.4660  0.2060
 1138SOL    HW1 3455   2.423   5.347   2.587 -2.3197  2.1535 -0.6943
 1138SOL    HW2 3456   2.407   5.245   2.697  1.8717  1.5673 -0.4730
 1139SOL     OW 3457   3.269   5.754   2.675 -0.0699  0.2598 -0.3443
 1139SOL    HW1 3458   3.363   5.766   2.685 -0.1354  0.4877  0.0375
 1139SOL    HW2 3459   3.231   5.836   2.708 -0.4278 -0.1053  0.1543
 1140SOL     OW 3460   2.699   5.334   2.822  0.2381 -0.7265 -0.1846
 1140SOL    HW1 3461   2.792   5.327   2.797  0.4326  1.7808 -0.4080
 1140SOL    HW2 3462   2.689   5.272   2.895  1.8993 -1.5303 -0.5782
 1141SOL     OW 3463   3.512   5.041   2.170  0.1394  0.3083 -0.1917
 1141SOL    HW1 3464   3.561   4.973   2.218 -0.3730 -1.4083 -1.9673
 1141SOL    HW2 3465   3.570   5.066   2.099  0.1482  1.4791  0.2137
 1142SOL     OW 3466   0.178   4.006   0.189  0.2053 -0.3492  0.1515
 1142SOL    HW1 3467   0.260   4.037   0.150  0.1251 -0.1689  0.1270
 1142SOL    HW2 3468   0.199   3.991   0.281  0.2936 -0.4046  0.1225
 1143SOL     OW 3469   2.684   5.069   2.929 -0.5192  0.3435 -0.3246
 1143SOL    HW1 3470   2.637   5.033   3.005 -0.2994 -0.3189 -0.4934
 1143SOL    HW2 3471   2.749   5.002   2.908 -1.5974 -0.2110 -2.0731
 1144SOL     OW 3472   3.220   5.066   2.599  0.5713 -0.0612  0.0337
 1144SOL    HW1 3473   3.194   5.118   2.675  0.5095 -1.5839  1.1025
 1144SOL    HW2 3474   3.299   5.107   2.567  2.8358 -1.4808  3.2589
 1145SOL     OW 3475   3.350   4.462   2.119  0.2393 -0.1864 -0.1217
 1145SOL    HW1 3476   3.427   4.431   2.165  0.0671  0.0963  0.3658
 1145SOL    HW2 3477   3.280   4.403   2.145  0.0233  0.2909  0.4118
 1146SOL     OW 3478   3.911   3.265   0.260 -0.5108  0.4424 -0.0454
 1146SOL    HW1 3479   3.986   3.302   0.308 -0.1908 -0.8269  0.4786
 1146SOL    HW2 3480   3.838   3.273   0.322 -0.6181  0.8585 -0.2187
 1147SOL     OW 3481   2.939   4.994   3.043  0.3591  0.0961  0.0560
 1147SOL    HW1 3482   2.915   4.913   2.999 -1.5550  0.0236  1.1101
 1147SOL    HW2 3483   2.950   4.969   3.135  0.0205  0.9630  0.3464
 1148SOL     OW 3484   2.302   4.232   2.580  0.4110 -0.3007  0.3673
 1148SOL    HW1 3485   2.284   4.263   2.669  1.0533 -0.9650  0.7393
 1148SOL    HW2 3486   2.324   4.140   2.591 -0.3053 -0.5890 -0.5878
 1149SOL     OW 3487   3.795   4.618   2.127 -0.4100  0.5943  0.3337
 1149SOL    HW1 3488   3.854   4.546   2.109 -1.2281  0.1572 -0.7327
 1149SOL    HW2 3489   3.779   4.657   2.041 -3.3620 -0.6610  0.1953
 1150SOL     OW 3490   3.123   4.818   2.568  0.0277  0.4805 -0.0306
 1150SOL    HW1 3491   3.167   4.900   2.590  1.4219 -0.3304  0.3039
 1150SOL    HW2 3492   3.034   4.829   2.602 -0.7789  2.9623 -2.5123
 1151SOL     OW 3493   3.437   4.195   1.625  0.4638  0.2739  0.0856
 1151SOL    HW1 3494   3.518   4.203   1.574 -0.2718  0.2772 -1.1341
 1151SOL    HW2 3495   3.391   4.278   1.608  0.2834  0.3458  0.9138
 1152SOL     OW 3496   3.147   4.927   1.918  0.5363 -0.3942 -0.3487
 1152SOL    HW1 3497   3.183   4.993   1.978 -0.7982  0.1717 -0.1374
 1152SOL    HW2 3498   3.120   4.855   1.975  2.3429 -1.3399 -0.6118
 1153SOL     OW 3499   2.833   5.545   2.538  0.2093 -0.1033 -0.7313
 1153SOL    HW1 3500   2.810   5.624   2.489  0.3959  1.0828  1.0113
 1153SOL    HW2 3501   2.929   5.547   2.542  0.3071 -1.2148 -1.8899
 1154SOL     OW 3502   2.215   5.012   3.003  0.2468 -0.0539 -0.3831
 1154SOL    HW1 3503   2.189   4.944   3.065 -0.9405 -0.3747 -1.1866
 1154SOL    HW2 3504   2.220   4.968   2.919 -0.3535  0.7879 -0.8880
 1155SOL     OW 3505   4.340   2.654   0.143 -0.0758  0.2398 -0.0193
 1155SOL    HW1 3506   4.263   2.634   0.195 -0.4023 -0.3829 -0.7275
 1155SOL    HW2 3507   4.410   2.664   0.206 -0.6215  0.2477  0.5915
 1156SOL     OW 3508   2.020   5.487   1.751  0.6793  0.9312  0.0412
 1156SOL    HW1 3509   1.927   5.490   1.773  0.1696 -0.2830 -1.6739
 1156SOL    HW2 3510   2.047   5.397   1.772  1.5724  1.3657  0.8367
 1157SOL     OW 3511   2.095   6.025   2.790  0.0565 -0.4233 -0.1613
 1157SOL    HW1 3512   2.084   6.097   2.852  0.1532  0.3000 -0.9754
 1157SOL    HW2 3513   2.162   5.969   2.831  1.9428  1.3086 -0.6990
 1158SOL     OW 3514   2.651   5.933   2.879  0.1146  0.1865  0.8162
 1158SOL    HW1 3515   2.609   6.004   2.926  0.8298  0.6991  0.7041
 1158SOL    HW2 3516   2.606   5.930   2.795 -0.2736  0.1526  1.0228
 1159SOL     OW 3517   1.810   4.862   2.525  0.1439  0.6396  0.2386
 1159SOL    HW1 3518   1.813   4.797   2.594  0.3921  0.8349  0.4139
 1159SOL    HW2 3519   1.899   4.864   2.489 -0.3512 -0.6295 -1.1799
 1160SOL     OW 3520   2.566   4.786   1.972  0.5046 -0.3805  0.4725
 1160SOL    HW1 3521   2.562   4.865   1.918  0.2892 -0.5387  0.2551
 1160SOL    HW2 3522   2.618   4.724   1.921  2.1244  0.1763  1.3692
 1161SOL     OW 3523   2.151   5.432   2.499  0.0350  0.4991 -0.2592
 1161SOL    HW1 3524   2.188   5.520   2.505  0.2412  0.3611  0.7192
 1161SOL    HW2 3525   2.222   5.373   2.525 -0.1857  0.0645 -0.6162
 1162SOL     OW 3526   3.306   4.777   2.135  0.3815 -0.6923 -0.5010
 1162SOL    HW1 3527   3.384   4.831   2.147  0.4758 -0.8854 -0.2515
 1162SOL    HW2 3528   3.339   4.687   2.134  0.4569 -0.6898 -2.6487
 1163SOL     OW 3529   3.382   6.357   2.928  0.0459 -0.1487 -0.4933
 1163SOL    HW1 3530   3.460   6.390   2.973 -0.6748  0.7226  0.1681
 1163SOL    HW2 3531   3.368   6.270   2.967  0.3508 -0.0672 -0.1906
 1164SOL     OW 3532   4.205   3.537   0.027 -0.3787  0.0042 -0.1952
 1164SOL    HW1 3533   4.185   3.444   0.015 -0.4981  0.1712 -1.3068
 1164SOL    HW2 3534   4.121   3.577   0.049 -0.1714 -0.2858  1.2351
 1165SOL     OW 3535   4.019   4.470   2.405 -0.3698  0.1741 -0.2287
 1165SOL    HW1 3536   4.076   4.451   2.479 -0.7007  0.9683  0.2426
 1165SOL    HW2 3537   3.932   4.483   2.444 -0.1530  2.8854 -0.4179
 1166SOL     OW 3538   3.406   5.593   2.193  0.1834  0.1087 -0.2065
 1166SOL    HW1 3539   3.370   5.681   2.203 -2.0237 -0.8120  0.6551
 1166SOL    HW2 3540   3.355   5.553   2.122  1.4324 -0.3866 -0.8761
 1167SOL     OW 3541   3.008   5.066   2.333 -0.2092 -0.5305  0.3014
 1167SOL    HW1 3542   2.947   5.042   2.403 -1.0453  0.6426  0.0042
 1167SOL    HW2 3543   3.057   5.141   2.367  1.8095 -2.0287  0.9099
 1168SOL     OW 3544   2.460   1.714   2.195 -0.3337 -0.6162  0.0705
 1168SOL    HW1 3545   2.429   1.764   2.270  1.0600  1.2719 -0.5078
 1168SOL    HW2 3546   2.429   1.625   2.210 -1.4365  0.0435  2.0608
 1169SOL     OW 3547   3.641   4.608   2.868  0.1232  0.1455  0.0170
 1169SOL    HW1 3548   3.614   4.536   2.924  1.9541  1.0209  2.2165
 1169SOL    HW2 3549   3.731   4.586   2.842 -0.1917  0.4485 -1.3968
 1170SOL     OW 3550   2.055   4.843   2.425 -0.1803 -0.1228 -0.3429
 1170SOL    HW1 3551   2.059   4.924   2.374 -0.5568 -0.0423 -0.2529
 1170SOL    HW2 3552   2.143   4.805   2.419  0.0763  0.4314 -0.1639
 1171SOL     OW 3553   2.997   5.596   1.845 -0.7416 -0.1425 -0.0424
 1171SOL    HW1 3554   3.022   5.635   1.761 -1.7999 -0.3464 -0.4742
 1171SOL    HW2 3555   2.973   5.671   1.899 -1.0623 -0.0740 -0.2748
 1172SOL     OW 3556   2.934   5.092   1.951  0.4431 -0.5412 -0.1786
 1172SOL    HW1 3557   2.908   5.097   2.043  0.3170  0.9470 -0.2681
 1172SOL    HW2 3558   3.014   5.039   1.952 -0.5438 -2.0997  0.5383
 1173SOL     OW 3559   3.353   1.868   1.883  0.2712  0.1109  0.3632
 1173SOL    HW1 3560   3.311   1.858   1.798  0.5940  1.3270  0.0298
 1173SOL    HW2 3561   3.281   1.868   1.946 -0.1983  1.3740 -0.1300
 1174SOL     OW 3562   2.860   4.997   2.590  0.0894 -0.2181  0.4323
 1174SOL    HW1 3563   2.855   4.990   2.685 -1.6657  0.3606  0.4091
 1174SOL    HW2 3564   2.770   4.991   2.560  0.3879  1.6128 -1.0320
 1175SOL     OW 3565   2.845   4.631   2.697 -0.2344 -0.5380 -0.0907
 1175SOL    HW1 3566   2.799   4.598   2.620 -0.0387 -1.7130  0.2727
 1175SOL    HW2 3567   2.886   4.553   2.735  1.5760  0.3629 -0.0750
 1176SOL     OW 3568   2.345   5.633   2.566  0.2844 -0.0322  0.4270
 1176SOL    HW1 3569   2.418   5.575   2.590 -0.1416 -1.2446 -1.0547
 1176SOL    HW2 3570   2.274   5.607   2.626 -0.3857 -2.1927 -1.1564
 1177SOL     OW 3571   2.152   5.591   1.983  0.3434  0.4774  0.0877
 1177SOL    HW1 3572   2.148   5.537   1.904 -1.0859  0.3954  0.1953
 1177SOL    HW2 3573   2.135   5.680   1.953  1.8089  0.7681  0.0411
 1178SOL     OW 3574   1.766   4.727   1.902 -0.7081 -0.1556  0.2681
 1178SOL    HW1 3575   1.848   4.685   1.928  0.3844  1.0643 -1.0559
 1178SOL    HW2 3576   1.716   4.735   1.984  2.2714  2.9555  2.0046
 1179SOL     OW 3577   2.042   3.978   1.993  0.0760  0.0790 -0.2688
 1179SOL    HW1 3578   2.021   4.056   1.941  0.6108  0.0053 -0.6075
 1179SOL    HW2 3579   2.090   4.013   2.068 -2.7585  0.4648  1.5143
 1180SOL     OW 3580   3.071   5.338   2.143  0.1862 -0.3269 -0.4717
 1180SOL    HW1 3581   2.977   5.353   2.156  0.5923  4.0261 -0.9646
 1180SOL    HW2 3582   3.107   5.338   2.231 -0.0387  0.5719 -0.3703
 1181SOL     OW 3583   2.814   2.160   2.751  0.1742  0.5709 -0.1450
 1181SOL    HW1 3584   2.825   2.073   2.712 -2.5590  0.3679 -0.6714
 1181SOL    HW2 3585   2.892   2.208   2.723  0.9640 -1.2012 -1.2422
 1182SOL     OW 3586   3.584   4.440   2.261  0.5640  0.0129  0.4964
 1182SOL    HW1 3587   3.651   4.503   2.235 -0.6816  0.6932 -1.1900
 1182SOL    HW2 3588   3.555   4.469   2.348  0.9109  0.9974  0.2873
 1183SOL     OW 3589   2.581   5.077   1.917 -0.1855  0.2591 -0.0619
 1183SOL    HW1 3590   2.632   5.133   1.858 -1.1883  0.9499 -0.3016
 1183SOL    HW2 3591   2.629   5.079   2.000  1.4730 -1.0600 -0.9326
 1184SOL     OW 3592   1.313   3.061   0.509 -0.2039  0.1347  0.4894
 1184SOL    HW1 3593   1.272   3.140   0.473 -0.6513 -0.4655 -0.3470
 1184SOL    HW2 3594   1.355   3.019   0.434  0.3292 -0.2515  0.9945
 1185SOL     OW 3595   2.818   5.370   2.240  0.1134  0.1869  0.1388
 1185SOL    HW1 3596   2.841   5.397   2.329  0.8386 -0.4417  0.1485
 1185SOL    HW2 3597   2.747   5.430   2.215  0.0550  0.5186  1.0483
 1186SOL     OW 3598   0.430   4.095   0.113 -0.3577  0.2842 -0.0558
 1186SOL    HW1 3599   0.444   4.106   0.019 -1.9006  1.4030 -0.1813
 1186SOL    HW2 3600   0.492   4.156   0.153 -0.1384  0.2701 -0.3641
 1187SOL     OW 3601   2.459   5.051   2.748 -0.2181 -0.2833  0.1634
 1187SOL    HW1 3602   2.528   5.045   2.815 -0.7386 -1.1947  0.6384
 1187SOL    HW2 3603   2.409   4.970   2.759 -0.5901 -0.2211 -1.0340
 1188SOL     OW 3604   3.210   5.467   1.973 -0.4824 -0.6493 -0.3939
 1188SOL    HW1 3605   3.140   5.524   1.942 -0.7128  0.8897  2.5495
 1188SOL    HW2 3606   3.165   5.401   2.025  0.0754 -1.3241 -0.7566
 1189SOL     OW 3607   3.485   5.948   2.417 -0.0392  0.2742 -0.4181
 1189SOL    HW1 3608   3.390   5.952   2.402  0.0083 -0.1321 -0.8679
 1189SOL    HW2 3609   3.495   5.881   2.485 -0.0811  0.4200 -0.2665
 1190SOL     OW 3610   6.075   5.588   2.810  0.6075  0.3634  0.4399
 1190SOL    HW1 3611   6.111   5.500   2.804 -0.2589  0.0023  0.3641
 1190SOL    HW2 3612   6.068   5.604   2.904 -0.5061 -0.2000  0.4702
 1191SOL     OW 3613   1.974   5.121   2.357  0.0718 -0.0240  0.2847
 1191SOL    HW1 3614   1.924   5.202   2.371 -0.1918  0.0014 -0.7124
 1191SOL    HW2 3615   2.062   5.151   2.334 -0.2793  0.0288 -1.0793
 1192SOL     OW 3616   4.013   2.602   0.254  0.1173 -0.3009  0.1083
 1192SOL    HW1 3617   3.931   2.564   0.220 -0.3241  0.3099  0.4679
 1192SOL    HW2 3618   4.060   2.527   0.291 -0.8375 -0.4877  1.0007
 1193SOL     OW 3619   2.200   5.900   2.538 -0.2510  0.2231 -0.6104
 1193SOL    HW1 3620   2.105   5.909   2.542 -0.4614 -1.4045 -1.1876
 1193SOL    HW2 3621   2.216   5.808   2.558  0.9781 -0.2552 -3.3526
 1194SOL     OW 3622   2.741   4.005   2.842 -0.2364  0.3651 -0.6244
 1194SOL    HW1 3623   2.803   4.058   2.793  0.0798  1.3296  0.7729
 1194SOL    HW2 3624   2.665   4.061   2.854 -0.6420 -0.1556 -0.7317
 1195SOL     OW 3625   2.624   5.546   2.175 -0.7321 -0.2047  0.4427
 1195SOL    HW1 3626   2.535   5.572   2.201 -0.3138  0.7162  1.0159
 1195SOL    HW2 3627   2.613   5.505   2.090 -1.5505  1.1446 -0.1397
 1196SOL     OW 3628   3.379   4.250   1.885  0.3826  0.1615 -0.7590
 1196SOL    HW1 3629   3.393   4.216   1.796 -0.2118 -0.9514 -0.4414
 1196SOL    HW2 3630   3.467   4.274   1.914  0.5932  0.5046 -1.6274
 1197SOL     OW 3631   2.859   4.411   2.159 -0.0515 -0.1750  0.0576
 1197SOL    HW1 3632   2.839   4.505   2.149 -2.0299 -0.7634 -2.8710
 1197SOL    HW2 3633   2.921   4.393   2.089  0.9381 -0.9408  1.1083
 1198SOL     OW 3634   3.727   5.034   2.574 -0.2509  0.0430 -0.7148
 1198SOL    HW1 3635   3.808   5.007   2.617 -0.0214  1.8811  0.0714
 1198SOL    HW2 3636   3.690   4.952   2.540  0.8492 -1.1126  0.7465
 1199SOL     OW 3637   1.849   5.206   2.074 -0.0288  0.0991 -0.6858
 1199SOL    HW1 3638   1.898   5.280   2.110 -1.8315  1.4368 -0.8128
 1199SOL    HW2 3639   1.787   5.182   2.144 -0.6513 -0.1192 -1.3014
 1200SOL     OW 3640   2.749   1.448   2.058  0.0898 -0.4286 -0.1761
 1200SOL    HW1 3641   2.719   1.381   2.120 -0.3502  1.6775  2.0309
 1200SOL    HW2 3642   2.670   1.474   2.010  0.1232 -0.9801 -0.5331
 1201SOL     OW 3643   1.831   2.858   0.067  0.7351  0.3238 -0.0506
 1201SOL    HW1 3644   1.896   2.836   0.133  3.1214  1.1784 -1.9956
 1201SOL    HW2 3645   1.802   2.774   0.032  0.5031 -0.0706  1.0507
 1202SOL     OW 3646   2.355   2.390   0.927  0.4104 -0.2388 -0.3938
 1202SOL    HW1 3647   2.361   2.394   1.023  0.0556  1.3058 -0.4219
 1202SOL    HW2 3648   2.263   2.369   0.911  0.0340  1.3591 -0.4151
 1203SOL     OW 3649   2.089   2.335   0.924 -0.5375  0.5264  0.1756
 1203SOL    HW1 3650   2.005   2.348   0.881 -0.3733  1.3471  0.0764
 1203SOL    HW2 3651   2.100   2.240   0.928 -0.9198  0.4233 -0.8743
 1204SOL     OW 3652   2.540   2.850   1.334 -0.0495  0.0316  0.0884
 1204SOL    HW1 3653   2.509   2.868   1.423  0.0301 -1.0330  0.3474
 1204SOL    HW2 3654   2.497   2.915   1.279  1.5234  2.0816  1.1698
 1205SOL     OW 3655   3.726   3.702   0.937  0.2740 -0.2060  0.1662
 1205SOL    HW1 3656   3.702   3.654   0.858  1.0399  2.4867 -1.8222
 1205SOL    HW2 3657   3.791   3.647   0.980 -0.2022 -1.7650 -1.0324
 1206SOL     OW 3658   2.802   2.880   0.846  0.2445 -0.3076  0.0260
 1206SOL    HW1 3659   2.722   2.833   0.869  0.0379  0.1447  0.2294
 1206SOL    HW2 3660   2.773   2.965   0.814  0.6698  0.2273  0.9976
 1207SOL     OW 3661   3.601   2.220   0.488  0.1699  0.2524  0.2303
 1207SOL    HW1 3662   3.659   2.251   0.557  0.5105  1.4802 -0.5751
 1207SOL    HW2 3663   3.553   2.298   0.459  0.7445 -0.0139 -1.5744
 1208SOL     OW 3664   2.683   3.106   1.421  0.3108 -0.0197 -0.0677
 1208SOL    HW1 3665   2.737   3.120   1.343 -0.5706  0.9598 -0.5410
 1208SOL    HW2 3666   2.610   3.167   1.410 -0.4046 -0.6517  0.9999
 1209SOL     OW 3667   2.919   2.436   2.023 -0.6397  0.3717 -0.0134
 1209SOL    HW1 3668   2.941   2.513   1.971  0.4899  0.1444  0.0880
 1209SOL    HW2 3669   2.836   2.405   1.988  0.1469  0.1541 -1.7763
 1210SOL     OW 3670   2.382   3.079   0.761  0.0614  0.0269 -0.1405
 1210SOL    HW1 3671   2.337   3.028   0.695  1.0522  0.2342 -1.0148
 1210SOL    HW2 3672   2.397   3.164   0.719 -0.8661  0.7726  1.0002
 1211SOL     OW 3673   2.629   3.078   1.756 -0.0356  0.1951  0.6135
 1211SOL    HW1 3674   2.552   3.059   1.809  0.3961 -1.5357  0.6732
 1211SOL    HW2 3675   2.623   3.172   1.738 -1.3144  0.4006  1.9247
 1212SOL     OW 3676   2.012   3.291   1.229  0.2828  0.2913  0.1676
 1212SOL    HW1 3677   2.052   3.223   1.284 -0.0833  0.7854  1.0687
 1212SOL    HW2 3678   2.059   3.371   1.252  1.2145  0.2354 -1.4286
 1213SOL     OW 3679   2.230   2.103   1.378  0.3091  0.0334  0.5620
 1213SOL    HW1 3680   2.181   2.178   1.344 -0.0693 -0.6341 -0.3879
 1213SOL    HW2 3681   2.311   2.101   1.327  0.4847  0.0155  0.8391
 1214SOL     OW 3682   3.207   2.654   0.783 -0.1238  0.0180  0.2014
 1214SOL    HW1 3683   3.159   2.586   0.829 -0.2656 -0.0721 -0.0744
 1214SOL    HW2 3684   3.261   2.696   0.850  0.0323 -0.4278  0.3525
 1215SOL     OW 3685   1.983   3.796   0.291 -0.0280  0.2564 -0.3243
 1215SOL    HW1 3686   1.920   3.803   0.219 -2.2501  0.7616  1.5767
 1215SOL    HW2 3687   1.958   3.716   0.337  1.0633  0.1868  0.1829
 1216SOL     OW 3688   1.867   3.547   0.344 -0.1301 -0.3443 -0.5802
 1216SOL    HW1 3689   1.827   3.476   0.294 -0.9638 -0.3309  0.0442
 1216SOL    HW2 3690   1.904   3.505   0.421  1.1248 -0.3606 -1.1766
 1217SOL     OW 3691   2.101   3.153   0.973 -0.1000  0.4516 -0.3406
 1217SOL    HW1 3692   2.097   3.180   1.065  0.9871 -0.5463  0.0298
 1217SOL    HW2 3693   2.068   3.063   0.974  0.4939  0.2269 -0.8243
 1218SOL     OW 3694   2.521   3.531   1.448 -0.7697  0.7043  0.1937
 1218SOL    HW1 3695   2.543   3.615   1.408 -0.3449  1.0687  1.1709
 1218SOL    HW2 3696   2.443   3.548   1.500 -0.7611  0.4584  0.2901
 1219SOL     OW 3697   3.586   2.261   1.419 -0.3205 -0.4629  0.3459
 1219SOL    HW1 3698   3.631   2.345   1.424  0.4009 -0.8882  1.5959
 1219SOL    HW2 3699   3.580   2.232   1.510 -0.1735 -1.9504 -0.0846
 1220SOL     OW 3700   2.135   2.736   0.748 -0.4091  0.1929  0.1610
 1220SOL    HW1 3701   2.150   2.659   0.693  1.5495  1.1711 -0.8011
 1220SOL    HW2 3702   2.173   2.712   0.833  0.3252  0.1144 -0.1779
 1221SOL     OW 3703   3.878   3.626   0.629  0.3387  0.7339 -0.1281
 1221SOL    HW1 3704   3.897   3.532   0.630 -0.8374  0.4824 -0.5531
 1221SOL    HW2 3705   3.893   3.653   0.538  1.1662  1.0803  0.0957
 1222SOL     OW 3706   3.854   5.589   2.919 -0.4100 -0.1568  0.5462
 1222SOL    HW1 3707   3.854   5.496   2.897  0.1357 -0.0276 -0.0448
 1222SOL    HW2 3708   3.944   5.607   2.945 -0.4969  0.2237  0.5882
 1223SOL     OW 3709   3.529   3.052   0.363 -0.0459  0.5171  0.0664
 1223SOL    HW1 3710   3.592   3.040   0.434  0.6606 -1.3247 -0.8008
 1223SOL    HW2 3711   3.539   3.144   0.337  1.6012  0.5246  0.5957
 1224SOL     OW 3712   3.288   3.346   0.822  0.1233  0.3497 -0.2439
 1224SOL    HW1 3713   3.381   3.351   0.800  0.1860 -1.1485 -0.3945
 1224SOL    HW2 3714   3.281   3.389   0.907  1.1219 -0.3169  0.1874
 1225SOL     OW 3715   2.390   2.378   1.717  0.1802  0.2431 -0.2783
 1225SOL    HW1 3716   2.378   2.442   1.787  3.2253  0.1320  0.4941
 1225SOL    HW2 3717   2.408   2.430   1.639  1.5096  0.3866  0.1020
 1226SOL     OW 3718   2.578   3.176   0.965 -0.3711 -0.1500 -0.0978
 1226SOL    HW1 3719   2.585   3.272   0.961  0.4723 -0.0860  1.8260
 1226SOL    HW2 3720   2.518   3.154   0.894 -1.8863  1.9662  0.4002
 1227SOL     OW 3721   2.357   1.659   0.798  0.1516 -0.4494  0.2147
 1227SOL    HW1 3722   2.293   1.690   0.734  1.0852 -0.6663 -0.8588
 1227SOL    HW2 3723   2.437   1.646   0.747  0.6379 -1.6242  1.2348
 1228SOL     OW 3724   2.263   2.681   1.062  0.0891 -0.4100 -0.5843
 1228SOL    HW1 3725   2.328   2.616   1.090 -0.1105 -1.0229 -1.5076
 1228SOL    HW2 3726   2.314   2.755   1.029  0.3246 -0.7040 -0.8869
 1229SOL     OW 3727   2.492   2.128   1.578  0.0301  0.0757  0.1014
 1229SOL    HW1 3728   2.480   2.202   1.638 -0.0790 -1.2837  1.8555
 1229SOL    HW2 3729   2.415   2.130   1.521 -0.6765  0.5171  1.0438
 1230SOL     OW 3730   3.526   3.401   1.292  0.1044  0.4174  0.2343
 1230SOL    HW1 3731   3.467   3.349   1.346  0.2936 -0.5402 -0.4501
 1230SOL    HW2 3732   3.471   3.469   1.253 -0.5951 -0.5848 -0.5590
 1231SOL     OW 3733   3.549   3.781   0.437 -0.1983 -0.3760  0.6394
 1231SOL    HW1 3734   3.606   3.858   0.429 -1.3534  0.5314  0.8464
 1231SOL    HW2 3735   3.579   3.722   0.368  0.4568  0.4232  0.2162
 1232SOL     OW 3736   3.089   2.471   0.925  0.1384  0.2889 -0.4600
 1232SOL    HW1 3737   3.017   2.486   0.985  0.8533  0.3116  0.4156
 1232SOL    HW2 3738   3.068   2.388   0.882  1.2846 -1.6950  2.4317
 1233SOL     OW 3739   2.882   2.363   1.073  0.0607 -0.3566 -0.4485
 1233SOL    HW1 3740   2.818   2.360   1.144  0.5969 -1.6454  0.0006
 1233SOL    HW2 3741   2.873   2.279   1.029  1.8490 -0.8203  0.0048
 1234SOL     OW 3742   3.539   2.207   1.692 -0.1544 -0.3377 -0.2802
 1234SOL    HW1 3743   3.619   2.227   1.741  1.0085  0.2696 -2.3213
 1234SOL    HW2 3744   3.472   2.197   1.760  1.2831  0.8012  1.4143
 1235SOL     OW 3745   2.880   2.624   1.522  0.4179  0.6808 -0.0600
 1235SOL    HW1 3746   2.887   2.586   1.435 -1.4253 -2.3825  0.9824
 1235SOL    HW2 3747   2.861   2.717   1.506  2.7432  0.8060 -2.8104
 1236SOL     OW 3748   2.888   2.277   1.506  0.0534 -0.0688 -0.3782
 1236SOL    HW1 3749   2.923   2.191   1.528  0.7387  0.0537 -0.9809
 1236SOL    HW2 3750   2.965   2.333   1.495 -0.3662  0.4912 -0.5428
 1237SOL     OW 3751   2.447   2.849   0.513 -0.0879  0.6125  0.0261
 1237SOL    HW1 3752   2.514   2.841   0.445 -0.0883  0.4789  0.0419
 1237SOL    HW2 3753   2.496   2.880   0.590 -0.0696  0.6594 -0.0042
 1238SOL     OW 3754   1.927   3.092   0.680 -0.3719  0.0381  0.4084
 1238SOL    HW1 3755   1.977   3.171   0.697 -0.1809  0.2388 -0.9732
 1238SOL    HW2 3756   1.839   3.112   0.711 -0.1298  0.4843  0.8215
 1239SOL     OW 3757   1.960   3.726   1.683 -0.1814 -0.3402 -0.3361
 1239SOL    HW1 3758   1.873   3.691   1.704 -0.6344  2.0052  2.3733
 1239SOL    HW2 3759   1.945   3.779   1.605 -1.6758  1.3210  0.9721
 1240SOL     OW 3760   5.132   4.507   3.006 -0.1320 -0.0847 -0.0838
 1240SOL    HW1 3761   5.063   4.556   3.051  0.3434  1.2771 -0.7801
 1240SOL    HW2 3762   5.157   4.563   2.932  1.4394 -0.7094 -0.0761
 1241SOL     OW 3763   3.143   3.133   0.238 -0.4000  0.5188 -0.3540
 1241SOL    HW1 3764   3.118   3.199   0.173 -1.1520  0.8713  0.2802
 1241SOL    HW2 3765   3.141   3.180   0.321 -0.1185 -0.1023  0.0051
 1242SOL     OW 3766   2.344   2.009   0.730 -0.0768 -0.3031 -0.6763
 1242SOL    HW1 3767   2.439   2.019   0.739 -0.3322  2.2275 -0.0973
 1242SOL    HW2 3768   2.331   1.980   0.640  1.3255 -3.4668  0.0049
 1243SOL     OW 3769   2.868   3.830   0.906 -0.1056  0.1872 -0.2377
 1243SOL    HW1 3770   2.837   3.901   0.961 -1.1988 -0.2652 -0.2251
 1243SOL    HW2 3771   2.902   3.765   0.968 -1.2196 -0.2680 -0.0644
 1244SOL     OW 3772   2.300   3.898   1.008  0.3643 -0.2128 -0.0113
 1244SOL    HW1 3773   2.358   3.949   0.951  2.0125 -0.9910  0.9423
 1244SOL    HW2 3774   2.321   3.807   0.989 -0.2808 -0.5043  0.6259
 1245SOL     OW 3775   3.632   2.916   1.013 -0.0467 -0.5380 -0.5477
 1245SOL    HW1 3776   3.572   2.990   1.008 -1.4593 -1.6726 -1.0454
 1245SOL    HW2 3777   3.643   2.887   0.923  2.1631  0.3002 -0.6087
 1246SOL     OW 3778   3.358   2.917   0.700  0.0583  0.1801 -0.7635
 1246SOL    HW1 3779   3.291   2.854   0.673 -0.4942  0.6822 -0.5898
 1246SOL    HW2 3780   3.427   2.863   0.739  0.7997 -0.5624 -2.9378
 1247SOL     OW 3781   2.468   3.299   2.022  0.2752 -0.0377 -0.3527
 1247SOL    HW1 3782   2.407   3.369   2.048  0.2035 -0.4435  0.6243
 1247SOL    HW2 3783   2.422   3.251   1.954 -0.5743 -0.4258  0.4770
 1248SOL     OW 3784   2.086   1.941   1.729  0.4739 -0.3147 -0.4282
 1248SOL    HW1 3785   2.113   2.033   1.739 -0.8210  0.0728 -0.3094
 1248SOL    HW2 3786   2.114   1.917   1.641 -0.2191  0.5689 -0.8978
 1249SOL     OW 3787   2.036   3.785   1.031 -0.0239 -0.4215 -0.1655
 1249SOL    HW1 3788   2.035   3.722   0.958  1.5387 -0.0972 -0.4930
 1249SOL    HW2 3789   2.127   3.812   1.038 -0.6771  2.0136 -0.2089
 1250SOL     OW 3790   2.791   3.450   0.727  0.2231  0.4207 -0.0903
 1250SOL    HW1 3791   2.762   3.515   0.664 -1.3877 -0.2767 -0.1296
 1250SOL    HW2 3792   2.886   3.448   0.719  0.4041  3.2222  0.4100
 1251SOL     OW 3793   2.081   2.302   0.367  0.0512  0.1692  0.0253
 1251SOL    HW1 3794   2.070   2.259   0.451  2.3638 -0.3909  0.0939
 1251SOL    HW2 3795   2.008   2.270   0.314 -1.0541  0.0097  1.5712
 1252SOL     OW 3796   3.584   1.952   1.995  0.5070  0.1062 -0.0842
 1252SOL    HW1 3797   3.517   1.907   1.944  0.6947  0.0790 -0.3072
 1252SOL    HW2 3798   3.582   1.909   2.080 -1.6699  1.8577  0.8810
 1253SOL     OW 3799   2.699   1.778   1.815 -0.3495 -0.1155 -0.2547
 1253SOL    HW1 3800   2.785   1.738   1.805 -0.2198  0.4514 -1.5702
 1253SOL    HW2 3801   2.709   1.865   1.777 -1.6959 -0.3188 -1.1296
 1254SOL     OW 3802   3.048   3.390   1.384  0.0412 -0.2682 -0.5340
 1254SOL    HW1 3803   3.042   3.479   1.349  1.0077  0.1023  0.1982
 1254SOL    HW2 3804   2.984   3.387   1.455  2.6837  1.1933  2.1409
 1255SOL     OW 3805   3.230   2.591   1.299 -0.3132  0.0700  0.4987
 1255SOL    HW1 3806   3.259   2.630   1.381 -1.8990  1.7184  0.3412
 1255SOL    HW2 3807   3.267   2.647   1.231 -0.4954 -0.2203  0.1584
 1256SOL     OW 3808   2.596   3.356   1.235 -0.3134  0.1588 -0.2119
 1256SOL    HW1 3809   2.612   3.405   1.154  0.9997  1.3245  0.6951
 1256SOL    HW2 3810   2.591   3.423   1.303 -0.5784 -0.8448  0.7976
 1257SOL     OW 3811   2.867   2.276   0.495  0.1259 -0.3220 -0.3749
 1257SOL    HW1 3812   2.781   2.302   0.528 -0.1397 -0.2387 -1.1136
 1257SOL    HW2 3813   2.854   2.187   0.461  0.2124 -0.1454 -0.8877
 1258SOL     OW 3814   2.424   2.044   0.454 -0.5123  0.0758  0.0839
 1258SOL    HW1 3815   2.517   2.068   0.454 -0.6668  0.7208  0.5986
 1258SOL    HW2 3816   2.393   2.066   0.366  0.0564 -1.1397 -0.4372
 1259SOL     OW 3817   2.687   2.109   0.281  0.3335  0.2781 -0.4329
 1259SOL    HW1 3818   2.781   2.118   0.267  0.2916  1.7810  0.1130
 1259SOL    HW2 3819   2.650   2.195   0.259 -0.8466 -0.1213 -0.1190
 1260SOL     OW 3820   2.969   2.595   1.199  0.0972 -0.4030  0.1796
 1260SOL    HW1 3821   3.061   2.576   1.216  0.3137  1.5719  1.4831
 1260SOL    HW2 3822   2.936   2.516   1.156  2.7368 -0.6150 -1.6984
 1261SOL     OW 3823   3.271   3.744   1.228 -0.2699 -0.4818  0.0642
 1261SOL    HW1 3824   3.366   3.740   1.225 -0.2738 -0.2809 -0.4220
 1261SOL    HW2 3825   3.242   3.672   1.172 -0.4031 -0.6624  0.3670
 1262SOL     OW 3826   2.421   3.108   1.213  0.0531 -0.4948  0.1014
 1262SOL    HW1 3827   2.470   3.169   1.158 -0.0223 -0.2766  0.2744
 1262SOL    HW2 3828   2.357   3.163   1.258 -1.0880 -0.9273 -0.9311
 1263SOL     OW 3829   3.307   4.233   0.873  0.2756 -0.7062  0.3481
 1263SOL    HW1 3830   3.235   4.282   0.833 -0.3522 -2.0007 -0.1421
 1263SOL    HW2 3831   3.385   4.283   0.850 -0.3974  0.4372  0.4475
 1264SOL     OW 3832   2.021   2.497   1.119 -0.4859 -0.4828  0.3804
 1264SOL    HW1 3833   2.075   2.573   1.097 -0.1722 -0.3920  1.4210
 1264SOL    HW2 3834   2.043   2.432   1.052 -0.1065  0.0346 -0.0069
 1265SOL     OW 3835   2.465   1.779   1.390 -0.4064 -0.1093  0.4474
 1265SOL    HW1 3836   2.460   1.698   1.339  0.2701 -0.8147  1.4551
 1265SOL    HW2 3837   2.438   1.848   1.329  1.6854 -0.7243 -1.3304
 1266SOL     OW 3838   2.830   2.006   0.529 -0.5443 -0.8698 -0.3388
 1266SOL    HW1 3839   2.863   1.952   0.601  0.4642  0.2161  0.0483
 1266SOL    HW2 3840   2.862   1.963   0.450 -1.2829 -1.8257 -0.1400
 1267SOL     OW 3841   3.007   1.833   0.680  0.1851 -0.4633  0.3004
 1267SOL    HW1 3842   3.022   1.749   0.723  2.4460  0.1477  0.8087
 1267SOL    HW2 3843   3.000   1.896   0.752  0.4759  0.0665 -0.1281
 1268SOL     OW 3844   3.243   3.562   1.045 -0.6141  0.0270 -0.5535
 1268SOL    HW1 3845   3.150   3.566   1.025 -0.6256  1.0884 -0.3751
 1268SOL    HW2 3846   3.284   3.617   0.977 -0.2081  0.2034 -0.1732
 1269SOL     OW 3847   3.045   2.832   0.666  0.5256  0.5096 -0.2262
 1269SOL    HW1 3848   3.108   2.777   0.714 -0.3568  1.8229  2.6624
 1269SOL    HW2 3849   2.967   2.833   0.721 -1.1134  1.0787 -2.4220
 1270SOL     OW 3850   3.925   2.849   0.678 -0.0303  0.2622  0.0508
 1270SOL    HW1 3851   3.883   2.767   0.707 -0.1754  0.5113  0.5477
 1270SOL    HW2 3852   3.993   2.820   0.617 -1.0172 -0.1455 -0.8976
 1271SOL     OW 3853   3.608   3.058   0.632  0.4932 -0.0091  0.2028
 1271SOL    HW1 3854   3.648   2.993   0.689 -0.9517 -2.2730 -1.2456
 1271SOL    HW2 3855   3.514   3.046   0.643  0.1918  1.3086 -0.6967
 1272SOL     OW 3856   2.293   2.175   0.232  0.0879 -0.1601 -0.0845
 1272SOL    HW1 3857   2.331   2.250   0.186  1.1053 -0.9255 -0.5331
 1272SOL    HW2 3858   2.206   2.205   0.259  0.3022  1.0265 -0.6405
 1273SOL     OW 3859   2.859   3.354   1.581  0.0817  0.0038  0.1693
 1273SOL    HW1 3860   2.768   3.327   1.574  0.6414 -1.6960 -1.1622
 1273SOL    HW2 3861   2.904   3.280   1.620  0.7041  1.3750  2.1948
 1274SOL     OW 3862   3.059   3.148   1.299 -0.2077 -0.2521 -0.3624
 1274SOL    HW1 3863   3.044   3.235   1.336  0.3156 -0.3280  0.0527
 1274SOL    HW2 3864   2.976   3.123   1.259 -1.1133 -0.5496  1.5778
 1275SOL     OW 3865   3.440   3.125   1.010 -0.2200 -0.2398 -0.8692
 1275SOL    HW1 3866   3.354   3.087   1.027 -0.7085  0.9917 -0.4820
 1275SOL    HW2 3867   3.422   3.212   0.974  0.8445  0.4540  0.1757
 1276SOL     OW 3868   2.974   2.026   1.632 -0.2656  0.1668  0.0189
 1276SOL    HW1 3869   2.894   2.052   1.677 -0.9608 -1.1610 -0.3848
 1276SOL    HW2 3870   2.977   1.931   1.644  1.5393  0.2566  0.4855
 1277SOL     OW 3871   2.897   2.936   1.786  0.5644  0.4601 -0.2111
 1277SOL    HW1 3872   2.950   2.995   1.733  0.6479  1.0079  0.4687
 1277SOL    HW2 3873   2.809   2.973   1.784  0.4031  0.0648 -0.5786
 1278SOL     OW 3874   2.274   2.884   0.221  0.3335 -0.1395  0.2823
 1278SOL    HW1 3875   2.332   2.855   0.291  3.0427  1.5393 -1.1085
 1278SOL    HW2 3876   2.225   2.957   0.258  1.2868  0.3321  0.6248
 1279SOL     OW 3877   2.553   2.576   1.431 -0.7909 -0.3427 -0.2826
 1279SOL    HW1 3878   2.572   2.670   1.426  1.5450 -0.7109  0.3783
 1279SOL    HW2 3879   2.472   2.570   1.482 -0.7055  1.2971  0.0970
 1280SOL     OW 3880   3.183   2.356   1.429  0.1491 -0.6186  0.3248
 1280SOL    HW1 3881   3.225   2.417   1.369  0.0275 -0.3396  0.5210
 1280SOL    HW2 3882   3.221   2.374   1.514 -0.8138  0.0800  0.6265
 1281SOL     OW 3883   1.880   3.427   1.066  0.0452  0.0353 -0.5667
 1281SOL    HW1 3884   1.956   3.478   1.037  0.3427  0.6270  1.1317
 1281SOL    HW2 3885   1.916   3.363   1.127 -0.5560 -1.1651 -1.4408
 1282SOL     OW 3886   2.199   3.119   0.382  0.2017  0.4868 -0.5285
 1282SOL    HW1 3887   2.258   3.184   0.419  0.7367  0.0164 -0.5478
 1282SOL    HW2 3888   2.187   3.055   0.452  0.4229  0.1176 -0.8228
 1283SOL     OW 3889   2.615   2.353   0.550 -0.3274  0.6567 -0.2449
 1283SOL    HW1 3890   2.543   2.299   0.518  0.3119 -0.4521  0.1154
 1283SOL    HW2 3891   2.572   2.423   0.599 -1.2070  0.9463 -1.3974
 1284SOL     OW 3892   3.393   3.713   0.851  0.2206  0.3076  0.4891
 1284SOL    HW1 3893   3.471   3.675   0.811 -0.4108 -0.9891  0.4217
 1284SOL    HW2 3894   3.364   3.779   0.789  1.6883  1.3744  0.8778
 1285SOL     OW 3895   3.319   3.316   1.443 -0.1462 -0.3526  0.0846
 1285SOL    HW1 3896   3.299   3.356   1.528  1.5163 -0.0269  0.3575
 1285SOL    HW2 3897   3.233   3.298   1.404 -1.0138  2.5330  0.4005
 1286SOL     OW 3898   3.583   2.739   0.461 -0.0149 -0.2370 -0.3146
 1286SOL    HW1 3899   3.587   2.828   0.426 -0.5107 -0.1203 -0.0809
 1286SOL    HW2 3900   3.576   2.682   0.385  1.5712 -0.1737 -0.5457
 1287SOL     OW 3901   2.153   3.528   1.188  0.1914 -0.3800 -0.1733
 1287SOL    HW1 3902   2.168   3.578   1.108 -0.0657 -1.5234 -0.9594
 1287SOL    HW2 3903   2.206   3.573   1.254 -0.0234  0.9089 -0.8445
 1288SOL     OW 3904   2.512   2.844   1.593  0.1316  0.3385 -0.3145
 1288SOL    HW1 3905   2.506   2.785   1.668  1.9295 -0.0315 -0.4095
 1288SOL    HW2 3906   2.582   2.906   1.617 -0.9159  1.7244 -0.7002
 1289SOL     OW 3907   3.085   1.716   1.892  0.0043 -0.3791 -0.3204
 1289SOL    HW1 3908   3.092   1.800   1.937  2.9177 -0.4082 -0.5325
 1289SOL    HW2 3909   3.124   1.731   1.806  0.6930 -1.9317 -0.3232
 1290SOL     OW 3910   2.186   1.833   1.954 -0.0242  0.4957  0.1269
 1290SOL    HW1 3911   2.276   1.844   1.921  0.2880  1.7093  1.2733
 1290SOL    HW2 3912   2.131   1.869   1.885  0.5078  1.3955  0.1453
 1291SOL     OW 3913   2.360   2.927   0.999  0.0927 -0.2981  0.6001
 1291SOL    HW1 3914   2.349   2.978   0.919 -0.6035 -1.3729  0.0005
 1291SOL    HW2 3915   2.350   2.991   1.070 -2.6361  0.1365 -0.0711
 1292SOL     OW 3916   3.195   3.031   1.061 -0.1484  0.1172 -0.4182
 1292SOL    HW1 3917   3.157   3.081   1.133 -0.2421  0.3067 -0.5974
 1292SOL    HW2 3918   3.142   2.951   1.058 -0.5117  0.3632 -0.6407
 1293SOL     OW 3919   1.911   2.116   1.187  0.0840  0.2074  0.0750
 1293SOL    HW1 3920   1.953   2.174   1.251 -0.4803 -1.4359  2.0667
 1293SOL    HW2 3921   1.978   2.050   1.166 -1.1157 -2.1355  2.8908
 1294SOL     OW 3922   1.729   3.111   1.047 -0.1728  0.2885  0.1105
 1294SOL    HW1 3923   1.734   3.191   1.100  0.1595 -0.7326  1.7017
 1294SOL    HW2 3924   1.661   3.130   0.982 -1.7269  1.0866  1.8651
 1295SOL     OW 3925   2.832   2.109   0.951 -0.2572 -0.4645 -0.0399
 1295SOL    HW1 3926   2.738   2.092   0.947 -0.2529 -0.7544  0.8428
 1295SOL    HW2 3927   2.861   2.061   1.029  1.0740 -2.4021 -1.6495
 1296SOL     OW 3928   2.101   2.060   0.845 -0.2637  0.1063 -0.1327
 1296SOL    HW1 3929   2.189   2.047   0.812  0.6654  1.5292  1.5741
 1296SOL    HW2 3930   2.096   2.007   0.924 -0.8171  0.2886 -0.0360
 1297SOL     OW 3931   3.030   2.818   1.032 -0.3141  0.5484 -0.0615
 1297SOL    HW1 3932   2.980   2.792   0.955 -1.4035  0.3239  0.6865
 1297SOL    HW2 3933   2.994   2.763   1.103 -0.7970  2.1851  1.0151
 1298SOL     OW 3934   3.831   3.529   1.918  0.3095 -0.5277 -0.1874
 1298SOL    HW1 3935   3.891   3.492   1.853 -0.0960  0.8735 -1.4357
 1298SOL    HW2 3936   3.809   3.456   1.976 -0.1405 -2.1171 -2.2507
 1299SOL     OW 3937   2.299   2.522   1.516 -0.2088  0.4278  0.0315
 1299SOL    HW1 3938   2.241   2.484   1.450  0.0879  0.9007 -0.5105
 1299SOL    HW2 3939   2.241   2.572   1.573 -0.3275  0.9763 -0.5626
 1300SOL     OW 3940   2.961   3.611   1.047  0.0820 -0.0728 -0.2390
 1300SOL    HW1 3941   2.917   3.534   1.011 -0.5492 -0.3297  1.0198
 1300SOL    HW2 3942   2.926   3.618   1.136  1.0423  0.9589  0.0667
 1301SOL     OW 3943   2.485   2.527   0.741 -0.5010  0.2525 -0.4408
 1301SOL    HW1 3944   2.538   2.593   0.785  0.5285 -0.7654 -0.0981
 1301SOL    HW2 3945   2.424   2.497   0.808 -1.8343  1.7083 -0.9463
 1302SOL     OW 3946   2.555   2.125   0.954 -0.1116 -0.2537 -0.0340
 1302SOL    HW1 3947   2.496   2.199   0.941  0.3797  0.0559 -0.5194
 1302SOL    HW2 3948   2.591   2.107   0.867  1.4152  0.3290  0.4399
 1303SOL     OW 3949   2.717   2.450   1.656 -0.1683 -0.7688  0.4066
 1303SOL    HW1 3950   2.760   2.380   1.607  1.3360  1.2165 -1.3042
 1303SOL    HW2 3951   2.743   2.530   1.611 -1.5933  0.9469  2.4293
 1304SOL     OW 3952   3.231   2.426   1.689 -0.3705 -0.5932  0.3167
 1304SOL    HW1 3953   3.315   2.385   1.707  0.5868  1.5047  0.9297
 1304SOL    HW2 3954   3.182   2.417   1.771  0.3229  0.5567  0.8761
 1305SOL     OW 3955   4.162   5.613   2.879  0.8379 -0.0642  0.2847
 1305SOL    HW1 3956   4.155   5.641   2.970  0.2136 -1.3216  0.6579
 1305SOL    HW2 3957   4.243   5.563   2.875 -0.0551 -1.6247  0.6575
 1306SOL     OW 3958   1.967   3.965   0.824 -0.1438  0.2759 -0.2232
 1306SOL    HW1 3959   1.931   3.908   0.756  0.4025  0.6115 -0.7960
 1306SOL    HW2 3960   1.967   3.910   0.903  1.9270 -1.1260 -1.1038
 1307SOL     OW 3961   2.060   3.643   0.792 -0.1376 -0.2129  0.4054
 1307SOL    HW1 3962   2.002   3.673   0.722 -0.7128 -0.9042  0.5719
 1307SOL    HW2 3963   2.133   3.601   0.747  0.8858  1.7215  0.1513
 1308SOL     OW 3964   2.823   3.081   1.173 -0.4373 -0.1739  0.2737
 1308SOL    HW1 3965   2.802   2.990   1.153 -0.8299 -0.2193  0.8602
 1308SOL    HW2 3966   2.755   3.132   1.129 -3.4420 -0.4119  4.0248
 1309SOL     OW 3967   1.864   2.373   0.772  0.0973  0.2462 -0.5401
 1309SOL    HW1 3968   1.788   2.334   0.813 -0.4009  0.5477 -1.1441
 1309SOL    HW2 3969   1.843   2.466   0.766  1.5771  0.7942  1.5724
 1310SOL     OW 3970   2.467   2.014   1.202  0.0568  0.3223  0.4093
 1310SOL    HW1 3971   2.541   1.999   1.261  0.3678 -1.0155 -0.2904
 1310SOL    HW2 3972   2.503   2.004   1.114 -0.6918  0.9337  0.0160
 1311SOL     OW 3973   2.082   2.591   0.401 -0.0663 -0.0958 -0.4418
 1311SOL    HW1 3974   2.162   2.594   0.453 -0.2302 -1.7177 -0.0517
 1311SOL    HW2 3975   2.060   2.499   0.396 -0.7809  0.1351 -2.3123
 1312SOL     OW 3976   3.348   2.776   0.965  0.2226  0.0254 -0.0412
 1312SOL    HW1 3977   3.286   2.839   1.003  1.1232  0.0429  1.4737
 1312SOL    HW2 3978   3.415   2.765   1.032  0.7524 -1.6162 -0.7895
 1313SOL     OW 3979   2.041   3.188   1.531  0.0901  0.3033  0.6060
 1313SOL    HW1 3980   1.987   3.168   1.608  2.4080  0.0819  2.2573
 1313SOL    HW2 3981   2.050   3.104   1.486 -2.2014  0.6356 -0.6431
 1314SOL     OW 3982   2.912   1.791   1.040 -0.3393 -0.1101  0.3262
 1314SOL    HW1 3983   2.897   1.781   1.134  0.2655  0.5122  0.4998
 1314SOL    HW2 3984   2.985   1.853   1.034 -1.1207  0.7560 -0.5804
 1315SOL     OW 3985   2.935   3.645   1.640  0.3169  0.4851 -0.3739
 1315SOL    HW1 3986   3.018   3.637   1.592  0.8185  1.7332  0.2430
 1315SOL    HW2 3987   2.892   3.560   1.628  1.8334 -0.3036 -0.4341
 1316SOL     OW 3988   2.321   3.290   1.390 -0.7249  0.0249  0.8076
 1316SOL    HW1 3989   2.297   3.286   1.483  0.4043  2.4027  1.2609
 1316SOL    HW2 3990   2.401   3.341   1.388  0.1845 -1.3523 -1.3673
 1317SOL     OW 3991   4.081   3.479   1.160  0.2985  0.2672  0.0034
 1317SOL    HW1 3992   4.071   3.572   1.181  0.5902  0.4878 -0.7653
 1317SOL    HW2 3993   3.992   3.446   1.153  0.1846  0.6007 -0.1518
 1318SOL     OW 3994   3.539   3.684   1.172  0.1721  0.2442 -0.0167
 1318SOL    HW1 3995   3.607   3.653   1.232 -0.1993 -0.1446  0.2045
 1318SOL    HW2 3996   3.570   3.656   1.085 -1.3262 -3.0465  0.3694
 1319SOL     OW 3997   1.902   2.932   0.957 -0.0664 -0.1964 -0.4250
 1319SOL    HW1 3998   1.854   2.999   1.005 -0.4972 -1.7915  1.5240
 1319SOL    HW2 3999   1.850   2.916   0.879 -1.2366  0.0787  0.2724
 1320SOL     OW 4000   2.595   3.645   1.777  0.0840  0.0030 -0.1570
 1320SOL    HW1 4001   2.608   3.704   1.851  0.7332  1.4657 -1.3859
 1320SOL    HW2 4002   2.583   3.703   1.702  0.6899 -1.4283 -1.4131
 1321SOL     OW 4003   3.594   3.661   0.671  0.1619 -0.5533 -0.0299
 1321SOL    HW1 4004   3.561   3.701   0.591 -0.5697 -0.1143  0.4884
 1321SOL    HW2 4005   3.688   3.682   0.671 -0.5633  3.5158  1.5224
 1322SOL     OW 4006   2.152   3.455   1.841 -0.2988  0.3681 -0.5797
 1322SOL    HW1 4007   2.187   3.366   1.843 -1.6917 -0.2718 -2.2421
 1322SOL    HW2 4008   2.157   3.481   1.750  0.4478  2.1868 -0.0602
 1323SOL     OW 4009   3.010   3.089   0.501 -0.2353 -0.1903 -0.2664
 1323SOL    HW1 4010   3.093   3.108   0.544 -0.2547 -1.2105  0.2355
 1323SOL    HW2 4011   3.015   2.997   0.478 -1.8104 -0.6662  1.0923
 1324SOL     OW 4012   2.575   3.333   1.660  0.2641 -0.6298  0.1284
 1324SOL    HW1 4013   2.563   3.389   1.583  3.8106 -0.1680 -0.2239
 1324SOL    HW2 4014   2.565   3.392   1.734  0.7247 -0.2370 -0.1216
 1325SOL     OW 4015   3.414   1.950   0.824 -0.5463 -0.5054 -0.1205
 1325SOL    HW1 4016   3.433   2.042   0.805 -0.5397  0.2965  3.1066
 1325SOL    HW2 4017   3.374   1.916   0.744 -2.2697  2.8169 -0.8545
 1326SOL     OW 4018   1.989   2.198   0.622 -0.2868  0.1898  1.1311
 1326SOL    HW1 4019   2.033   2.157   0.696 -0.7194 -0.4084  1.0569
 1326SOL    HW2 4020   1.945   2.275   0.659  1.1593  1.0597  1.1372
 1327SOL     OW 4021   2.848   2.893   1.442  0.1167 -0.2813  0.5632
 1327SOL    HW1 4022   2.768   2.944   1.429  0.5487  0.1721 -0.4132
 1327SOL    HW2 4023   2.912   2.956   1.473 -0.1934 -0.8668  2.5236
 1328SOL     OW 4024   2.312   3.637   1.600  0.0409 -0.0742 -0.9733
 1328SOL    HW1 4025   2.298   3.660   1.692  1.1319  1.3759 -1.1218
 1328SOL    HW2 4026   2.232   3.593   1.573 -0.6477  0.2746  0.4355
 1329SOL     OW 4027   3.063   3.394   0.670  0.2866  0.1695  0.1377
 1329SOL    HW1 4028   3.078   3.353   0.584 -1.2105 -3.1810  1.3217
 1329SOL    HW2 4029   3.126   3.352   0.728 -0.4142  0.5377  1.1888
 1330SOL     OW 4030   3.016   2.239   0.767  0.2460  0.2067 -0.1566
 1330SOL    HW1 4031   2.961   2.194   0.831  0.5626  1.1173  0.7748
 1330SOL    HW2 4032   2.958   2.254   0.692 -0.3352 -0.2029  0.2051
 1331SOL     OW 4033   2.369   3.607   0.471  0.4961  0.0875 -0.1681
 1331SOL    HW1 4034   2.338   3.686   0.427  0.1882 -0.1744 -0.4308
 1331SOL    HW2 4035   2.372   3.541   0.401  0.7851 -0.1219  0.0395
 1332SOL     OW 4036   3.356   2.027   1.504 -0.4372 -0.6039  0.0432
 1332SOL    HW1 4037   3.445   2.051   1.480 -0.3485  0.7924  1.5852
 1332SOL    HW2 4038   3.301   2.080   1.446 -0.2929 -1.1250 -0.5905
 1333SOL     OW 4039   2.003   3.245   0.169  0.3593  0.1342  0.0905
 1333SOL    HW1 4040   1.989   3.182   0.098 -1.9790 -3.6017  3.4640
 1333SOL    HW2 4041   2.069   3.204   0.225  1.7077  2.6820  0.5517
 1334SOL     OW 4042   2.103   2.953   1.417  0.4462 -0.2519  0.3776
 1334SOL    HW1 4043   2.114   2.934   1.324  0.4715 -1.1330  0.5612
 1334SOL    HW2 4044   2.035   2.893   1.447  0.0329  0.4124  0.8051
 1335SOL     OW 4045   2.896   2.055   1.215 -0.1165 -0.0518  0.0559
 1335SOL    HW1 4046   2.833   2.006   1.267  0.6724 -1.2718 -0.0983
 1335SOL    HW2 4047   2.974   2.061   1.269 -0.2319  1.1682  0.1186
 1336SOL     OW 4048   3.935   4.553   2.821  0.8546 -0.5223 -0.2282
 1336SOL    HW1 4049   4.013   4.608   2.812  1.1290 -0.8438  0.1431
 1336SOL    HW2 4050   3.951   4.479   2.762  0.2039  0.0879 -1.2141
 1337SOL     OW 4051   3.450   2.776   1.238 -0.1059  0.2026 -0.1157
 1337SOL    HW1 4052   3.437   2.871   1.238  0.6844  0.3220  0.3656
 1337SOL    HW2 4053   3.543   2.765   1.217 -0.0613 -0.4386  0.3936
 1338SOL     OW 4054   1.889   2.172   0.230  0.2224 -0.0736 -0.1656
 1338SOL    HW1 4055   1.863   2.181   0.138  3.4176 -0.2567 -1.1843
 1338SOL    HW2 4056   1.875   2.079   0.249  0.4948 -0.2516 -0.7967
 1339SOL     OW 4057   2.720   2.754   1.152  0.3262 -0.1973 -0.0051
 1339SOL    HW1 4058   2.666   2.776   1.227 -1.1918 -1.2945 -0.7320
 1339SOL    HW2 4059   2.804   2.728   1.189 -0.3518 -0.5965  1.3024
 1340SOL     OW 4060   3.783   3.628   1.289  0.4468  0.2363  0.3380
 1340SOL    HW1 4061   3.866   3.665   1.261  0.6959 -0.1612  0.5427
 1340SOL    HW2 4062   3.804   3.579   1.369  0.1439 -0.4289  0.0185
 1341SOL     OW 4063   2.720   2.400   1.304  0.6171  0.1039  0.2395
 1341SOL    HW1 4064   2.662   2.459   1.351  0.9426  0.0825  0.6760
 1341SOL    HW2 4065   2.757   2.343   1.372 -0.0474 -0.9185 -0.2208
 1342SOL     OW 4066   3.544   3.224   1.834  0.1794 -0.4020  0.1960
 1342SOL    HW1 4067   3.475   3.269   1.785  1.0243  0.2862 -0.3763
 1342SOL    HW2 4068   3.620   3.227   1.777  0.6567 -1.2742  0.7706
 1343SOL     OW 4069   1.866   3.558   1.456  0.3327 -0.1611 -0.1120
 1343SOL    HW1 4070   1.832   3.617   1.389 -0.5205 -0.3835  0.1005
 1343SOL    HW2 4071   1.787   3.524   1.499  0.8512 -0.4067  0.6659
 1344SOL     OW 4072   3.824   3.001   1.216 -0.0524 -0.0857 -0.3626
 1344SOL    HW1 4073   3.812   3.089   1.250 -1.1820 -1.0882  2.0898
 1344SOL    HW2 4074   3.756   2.992   1.149 -0.9966  0.3992  0.5055
 1345SOL     OW 4075   3.106   2.383   0.347  0.6326  0.3277  0.2917
 1345SOL    HW1 4076   3.124   2.468   0.388 -0.0950  0.2777  0.7302
 1345SOL    HW2 4077   3.044   2.340   0.407  1.0560 -0.5490  0.1225
 1346SOL     OW 4078   2.319   2.592   0.546  0.1478  0.4341  0.1122
 1346SOL    HW1 4079   2.376   2.560   0.617  0.6420  0.0758 -0.4343
 1346SOL    HW2 4080   2.347   2.682   0.533  0.4386  0.3276 -0.0030
 1347SOL     OW 4081   3.914   1.933   1.441  0.2438 -0.1050 -0.0250
 1347SOL    HW1 4082   3.888   2.021   1.470  0.4770  0.7842 -2.3312
 1347SOL    HW2 4083   3.954   1.894   1.519 -0.2989  1.6421  1.2025
 1348SOL     OW 4084   2.607   3.452   0.955  0.2843 -0.0079 -0.3564
 1348SOL    HW1 4085   2.608   3.544   0.982  1.7395  0.3280 -1.4220
 1348SOL    HW2 4086   2.640   3.453   0.865 -0.0809 -1.5406 -0.5405
 1349SOL     OW 4087   2.570   2.738   0.941  0.0279 -0.1708  0.3157
 1349SOL    HW1 4088   2.609   2.746   1.028 -1.6695  2.7774  0.9295
 1349SOL    HW2 4089   2.495   2.798   0.942 -1.8225 -2.1987 -2.2590
 1350SOL     OW 4090   2.712   3.451   0.285  0.1660 -0.0608 -0.1841
 1350SOL    HW1 4091   2.806   3.435   0.288  0.6819  2.6112  0.9889
 1350SOL    HW2 4092   2.688   3.471   0.376 -1.2132  0.7033 -0.6823
 1351SOL     OW 4093   3.813   3.455   1.075 -0.5261 -0.3380 -0.1447
 1351SOL    HW1 4094   3.759   3.455   1.154 -1.1484  2.1398 -0.4844
 1351SOL    HW2 4095   3.804   3.366   1.040 -1.3055 -1.0933  1.8344
 1352SOL     OW 4096   2.290   3.008   1.618 -0.4535  0.0230  0.0310
 1352SOL    HW1 4097   2.227   2.998   1.547 -0.5135  0.8305 -0.0291
 1352SOL    HW2 4098   2.361   2.948   1.594 -0.5848  0.1018 -0.5877
 1353SOL     OW 4099   2.050   3.335   0.771 -0.8458 -0.0235  0.3034
 1353SOL    HW1 4100   2.070   3.280   0.847 -0.0591 -0.8315 -0.4633
 1353SOL    HW2 4101   2.129   3.388   0.760 -0.1884 -1.2053 -1.0260
 1354SOL     OW 4102   2.665   3.487   1.980 -0.0845  0.2065  0.1179
 1354SOL    HW1 4103   2.593   3.425   1.988 -0.1619  0.2884  0.0537
 1354SOL    HW2 4104   2.649   3.532   1.897 -0.6502  1.1133  0.6969
 1355SOL     OW 4105   3.514   2.099   1.221  0.0136 -0.1616 -0.2383
 1355SOL    HW1 4106   3.544   2.155   1.293  1.5402 -0.4198 -0.6320
 1355SOL    HW2 4107   3.531   2.150   1.142  1.0262 -0.9857 -0.5737
 1356SOL     OW 4108   1.742   2.177   0.492 -0.2506 -0.3605  0.2087
 1356SOL    HW1 4109   1.789   2.166   0.410  0.4307 -0.5536  0.6216
 1356SOL    HW2 4110   1.809   2.173   0.559 -0.6498  0.9304  0.7165
 1357SOL     OW 4111   3.766   3.279   1.280  0.3963  0.2361  0.1076
 1357SOL    HW1 4112   3.679   3.318   1.288  0.1100 -0.4193  0.3313
 1357SOL    HW2 4113   3.815   3.316   1.353  0.2693  0.5205  0.0513
 1358SOL     OW 4114   2.454   2.523   1.165  0.2683 -0.2129  0.6878
 1358SOL    HW1 4115   2.528   2.481   1.120  1.1930  1.5266  0.4864
 1358SOL    HW2 4116   2.487   2.541   1.253 -0.0483  0.1743  0.7340
 1359SOL     OW 4117   2.632   3.662   0.562  0.0074 -0.0977 -0.5465
 1359SOL    HW1 4118   2.632   3.745   0.610 -0.6367  0.3506 -1.3062
 1359SOL    HW2 4119   2.548   3.661   0.517 -0.5657 -1.7672  0.4705
 1360SOL     OW 4120   3.115   2.106   1.415 -0.1888  0.1935 -0.0530
 1360SOL    HW1 4121   3.077   2.089   1.501  0.0607  1.0858  0.2404
 1360SOL    HW2 4122   3.132   2.200   1.414  1.4030 -0.0601 -0.4207
 1361SOL     OW 4123   2.883   1.729   1.592  0.3085  0.3363 -0.3077
 1361SOL    HW1 4124   2.922   1.731   1.505 -0.6081 -0.6527 -0.7679
 1361SOL    HW2 4125   2.879   1.635   1.614  0.6751  0.5777  0.8701
 1362SOL     OW 4126   2.259   3.491   0.672 -0.5028  0.2292 -0.2282
 1362SOL    HW1 4127   2.299   3.553   0.611 -1.4593  0.7550 -0.3420
 1362SOL    HW2 4128   2.238   3.415   0.619 -1.2940  0.6695 -0.5758
 1363SOL     OW 4129   2.312   3.576   0.956  0.0738 -0.4868  0.3813
 1363SOL    HW1 4130   2.254   3.559   0.882  0.4707 -0.2830  0.0191
 1363SOL    HW2 4131   2.393   3.530   0.934  0.8665  1.1105 -0.2223
 1364SOL     OW 4132   3.155   2.615   0.512 -0.1500 -0.0441  0.6355
 1364SOL    HW1 4133   3.208   2.577   0.583  0.9037  0.5289  0.1860
 1364SOL    HW2 4134   3.108   2.687   0.553 -0.3901 -0.4005  0.9918
 1365SOL     OW 4135   3.274   2.253   0.688  0.1600 -0.1375 -0.3222
 1365SOL    HW1 4136   3.185   2.256   0.723 -1.0736 -0.2331 -3.1677
 1365SOL    HW2 4137   3.295   2.344   0.669  0.1443 -0.2239 -0.7775
 1366SOL     OW 4138   2.133   2.955   0.571  0.5452  0.4715 -0.3922
 1366SOL    HW1 4139   2.061   2.999   0.617 -0.8793  0.1622 -2.2164
 1366SOL    HW2 4140   2.147   2.874   0.620  2.1117  2.0742  2.0547
 1367SOL     OW 4141   2.130   2.691   1.648  0.2742 -0.3609 -0.3316
 1367SOL    HW1 4142   2.082   2.769   1.620 -0.5349 -1.2318 -1.4097
 1367SOL    HW2 4143   2.173   2.718   1.729 -0.9450  0.8510 -0.0538
 1368SOL     OW 4144   2.117   2.327   2.883  0.0184  0.1388  0.5415
 1368SOL    HW1 4145   2.085   2.238   2.871  0.6758  0.0345 -0.6407
 1368SOL    HW2 4146   2.128   2.361   2.794  1.1115  0.9027  0.9416
 1369SOL     OW 4147   1.863   2.081   2.548 -0.2501  0.2835 -0.3630
 1369SOL    HW1 4148   1.921   2.077   2.624  1.0330 -0.0182 -1.3416
 1369SOL    HW2 4149   1.888   2.007   2.494 -2.2780 -0.4934 -0.3206
 1370SOL     OW 4150   2.392   3.208   3.041  0.5566  0.0531  0.6026
 1370SOL    HW1 4151   2.364   3.118   3.061 -0.3012 -0.3002 -1.8815
 1370SOL    HW2 4152   2.484   3.211   3.067 -0.2559 -0.4087  4.0157
 1371SOL     OW 4153   3.057   3.506   2.373 -0.0189  0.6157  0.4025
 1371SOL    HW1 4154   2.982   3.450   2.356 -0.6670  1.1964  1.2703
 1371SOL    HW2 4155   3.021   3.582   2.417  1.1980  0.3819  1.9036
 1372SOL     OW 4156   3.172   2.447   2.288  0.4047 -0.2900 -0.0328
 1372SOL    HW1 4157   3.171   2.524   2.345  0.4046  0.0679 -0.5110
 1372SOL    HW2 4158   3.096   2.459   2.230 -1.8254 -2.4163  2.1834
 1373SOL     OW 4159   3.923   2.226   1.504 -0.3455 -0.5286  0.1534
 1373SOL    HW1 4160   3.872   2.290   1.454  0.2540 -0.0395  0.1437
 1373SOL    HW2 4161   3.913   2.252   1.595 -1.1520 -1.2084  0.2634
 1374SOL     OW 4162   0.157   0.771   0.127  0.0496 -0.2827  0.3515
 1374SOL    HW1 4163   0.065   0.788   0.148  0.2597  0.9352  0.3489
 1374SOL    HW2 4164   0.160   0.677   0.110 -1.1604 -0.3741  0.5189
 1375SOL     OW 4165   2.872   2.660   2.290  0.0405  0.1462  0.4132
 1375SOL    HW1 4166   2.814   2.695   2.358 -0.5410  0.2644 -0.1344
 1375SOL    HW2 4167   2.950   2.632   2.337 -0.1045  0.7974  1.0558
 1376SOL     OW 4168   2.180   3.275   2.522  0.5039 -0.6876 -0.3025
 1376SOL    HW1 4169   2.172   3.315   2.435  1.2518 -0.8349 -0.4429
 1376SOL    HW2 4170   2.131   3.193   2.514  0.4462 -0.6321 -0.5408
 1377SOL     OW 4171   3.745   2.525   2.089  0.4725 -0.1191 -0.3499
 1377SOL    HW1 4172   3.792   2.594   2.043  3.4803 -1.6781  0.1390
 1377SOL    HW2 4173   3.731   2.560   2.177  1.9034 -0.0667 -0.1236
 1378SOL     OW 4174   2.190   3.271   2.237 -0.8569  0.6783 -0.1579
 1378SOL    HW1 4175   2.174   3.201   2.173 -2.1478  0.2083  0.6576
 1378SOL    HW2 4176   2.206   3.348   2.183 -0.6234  0.0249 -1.0664
 1379SOL     OW 4177   2.441   3.696   2.820 -0.6363 -1.0787  0.0255
 1379SOL    HW1 4178   2.534   3.711   2.805 -0.6573 -2.0497 -1.2162
 1379SOL    HW2 4179   2.419   3.623   2.763 -2.1789 -0.8315  0.2662
 1380SOL     OW 4180   2.479   3.100   2.623 -0.2151  0.3253 -0.1111
 1380SOL    HW1 4181   2.385   3.115   2.614 -0.2659  1.0065  1.2857
 1380SOL    HW2 4182   2.485   3.023   2.680  0.0935 -1.0553 -1.9263
 1381SOL     OW 4183   2.511   2.882   1.966 -0.3027 -0.0964 -0.1073
 1381SOL    HW1 4184   2.595   2.837   1.957 -0.4756 -0.5919  0.6776
 1381SOL    HW2 4185   2.494   2.884   2.060 -0.9037  0.4954 -0.2204
 1382SOL     OW 4186   1.339   4.084   0.192 -0.1489 -0.3430 -0.5286
 1382SOL    HW1 4187   1.308   4.062   0.280  2.3874 -0.7359  0.3763
 1382SOL    HW2 4188   1.313   4.174   0.179  0.0681 -0.0170  1.0001
 1383SOL     OW 4189   1.758   2.421   2.428  0.0655  0.0222  0.6190
 1383SOL    HW1 4190   1.805   2.355   2.478  0.8547 -1.6892 -2.2130
 1383SOL    HW2 4191   1.826   2.477   2.391 -0.3132 -0.3603 -0.6879
 1384SOL     OW 4192   3.500   3.742   2.731  0.1491 -0.3964 -0.0787
 1384SOL    HW1 4193   3.449   3.711   2.806 -0.7672 -1.1284 -0.9697
 1384SOL    HW2 4194   3.545   3.664   2.698  0.5433 -0.0862 -0.2848
 1385SOL     OW 4195   2.268   3.208   1.813  0.0587  0.3319 -0.2221
 1385SOL    HW1 4196   2.284   3.164   1.729 -0.0402 -1.2124  0.5318
 1385SOL    HW2 4197   2.220   3.144   1.865  1.0682  0.8531  1.4155
 1386SOL     OW 4198   3.852   2.692   2.526 -0.5759 -0.1388  0.2466
 1386SOL    HW1 4199   3.896   2.751   2.587 -1.5532  1.5205 -0.6038
 1386SOL    HW2 4200   3.923   2.654   2.474  0.2640 -1.5013  2.2777
 1387SOL     OW 4201   3.791   2.907   2.219  0.8504  0.1884 -0.7488
 1387SOL    HW1 4202   3.882   2.880   2.233  1.2146  1.4061 -0.6448
 1387SOL    HW2 4203   3.764   2.943   2.303 -0.4307 -1.9984 -0.1439
 1388SOL     OW 4204   2.628   2.768   2.444  0.0173  0.3506 -0.3143
 1388SOL    HW1 4205   2.599   2.797   2.530 -0.2159  2.6104 -1.0827
 1388SOL    HW2 4206   2.557   2.714   2.412 -0.2378  0.1301  0.5997
 1389SOL     OW 4207   2.762   1.695   2.258 -0.1406  0.3278  0.9305
 1389SOL    HW1 4208   2.819   1.770   2.275  0.1712  0.5446 -0.8315
 1389SOL    HW2 4209   2.759   1.689   2.163  1.1003 -2.8115  0.9570
 1390SOL     OW 4210   6.283   2.666   2.739 -0.0185 -0.6221 -0.3083
 1390SOL    HW1 4211   6.272   2.753   2.779 -0.3203 -0.5762 -0.4857
 1390SOL    HW2 4212   6.322   2.613   2.808 -1.1502 -0.7158  0.2975
 1391SOL     OW 4213   3.374   2.347   2.138  0.0211 -0.3334  0.3602
 1391SOL    HW1 4214   3.286   2.375   2.161 -0.5080  0.3818 -2.1707
 1391SOL    HW2 4215   3.418   2.427   2.109  1.4484 -0.7230  1.3453
 1392SOL     OW 4216   3.314   3.091   2.621  0.9375 -0.2192  0.2185
 1392SOL    HW1 4217   3.333   3.182   2.600  0.0113  0.2202  1.2063
 1392SOL    HW2 4218   3.398   3.053   2.645  1.5251  0.0479 -1.2908
 1393SOL     OW 4219   3.251   3.936   2.788 -1.0171 -0.4202  0.3683
 1393SOL    HW1 4220   3.324   3.900   2.737  0.2246  1.1896  0.9080
 1393SOL    HW2 4221   3.198   3.984   2.725  0.2807  1.2099  0.4495
 1394SOL     OW 4222   2.481   2.602   1.830  0.0359  0.1623 -0.4600
 1394SOL    HW1 4223   2.558   2.548   1.846 -0.2408 -0.3193 -0.7410
 1394SOL    HW2 4224   2.434   2.603   1.914 -0.8172 -1.4154 -0.8761
 1395SOL     OW 4225   3.400   2.815   2.456 -0.9935  0.1159  0.4794
 1395SOL    HW1 4226   3.426   2.896   2.411 -3.0849  0.4600 -0.2169
 1395SOL    HW2 4227   3.373   2.756   2.385 -0.6898 -0.7573  1.0684
 1396SOL     OW 4228   3.387   3.460   2.165 -0.3775  0.2291  0.9130
 1396SOL    HW1 4229   3.417   3.509   2.088 -0.3585 -1.7666 -0.4410
 1396SOL    HW2 4230   3.464   3.413   2.195 -1.0887 -1.5420  0.0932
 1397SOL     OW 4231   2.773   2.331   2.456  0.8592  0.0658 -0.1443
 1397SOL    HW1 4232   2.738   2.372   2.377  0.2822 -2.3908 -1.2416
 1397SOL    HW2 4233   2.713   2.359   2.526  1.0322  1.7842 -0.6463
 1398SOL     OW 4234   1.969   2.601   2.484 -0.0766 -0.1961 -0.3574
 1398SOL    HW1 4235   1.943   2.616   2.576  1.8271 -1.3762  0.4361
 1398SOL    HW2 4236   2.012   2.683   2.458 -0.9332  0.2754 -0.3481
 1399SOL     OW 4237   2.662   2.099   1.976 -0.0827 -0.1386 -0.5510
 1399SOL    HW1 4238   2.734   2.106   2.039 -0.1560 -1.5038 -0.2646
 1399SOL    HW2 4239   2.619   2.016   2.000 -1.4707  0.4339 -0.9965
 1400SOL     OW 4240   3.643   3.175   2.255 -0.2226 -0.5590  0.7497
 1400SOL    HW1 4241   3.591   3.095   2.258 -0.1473 -0.7937 -1.9600
 1400SOL    HW2 4242   3.723   3.153   2.303 -0.2955 -2.0569  0.2362
 1401SOL     OW 4243   2.441   2.225   2.847  0.3942 -0.0985  0.3030
 1401SOL    HW1 4244   2.472   2.188   2.765  0.6461 -0.4555  0.5557
 1401SOL    HW2 4245   2.378   2.293   2.821  0.3950 -0.2802 -0.1777
 1402SOL     OW 4246   2.690   3.603   2.240  0.4407 -0.5246 -0.2466
 1402SOL    HW1 4247   2.749   3.675   2.220  1.1233 -1.2435 -0.8650
 1402SOL    HW2 4248   2.676   3.558   2.157  0.0482 -1.1343  0.1356
 1403SOL     OW 4249   0.061   1.262   0.035 -0.8075 -0.0760  0.3021
 1403SOL    HW1 4250   0.013   1.278  -0.046  0.1386  0.0455 -0.2366
 1403SOL    HW2 4251   0.125   1.195   0.013 -0.0922  0.4387  0.7680
 1404SOL     OW 4252   3.790   2.943   2.753 -0.2389  0.0037 -0.3225
 1404SOL    HW1 4253   3.772   2.879   2.823 -1.1183  1.7925  1.1666
 1404SOL    HW2 4254   3.885   2.941   2.742 -0.1924 -1.0706  0.1497
 1405SOL     OW 4255   2.258   2.854   1.846  0.0927 -0.0716 -0.0913
 1405SOL    HW1 4256   2.265   2.910   1.769 -0.6785 -0.5953 -0.5607
 1405SOL    HW2 4257   2.345   2.856   1.885 -0.2274  2.5197  0.7039
 1406SOL     OW 4258   3.679   2.539   2.365  0.1599 -0.3151 -1.0671
 1406SOL    HW1 4259   3.596   2.518   2.407  0.2007 -0.5231 -1.0878
 1406SOL    HW2 4260   3.724   2.597   2.427 -0.7640  1.3053 -1.8416
 1407SOL     OW 4261   3.143   3.268   2.247 -0.1211 -0.0773 -0.1581
 1407SOL    HW1 4262   3.202   3.228   2.183 -0.2239 -0.1809 -0.1894
 1407SOL    HW2 4263   3.156   3.362   2.236  0.1619 -0.1034 -0.0472
 1408SOL     OW 4264   3.742   3.221   2.010  0.2837  0.1331  0.3505
 1408SOL    HW1 4265   3.670   3.237   1.949  0.2514 -0.6249  0.1799
 1408SOL    HW2 4266   3.702   3.219   2.096  0.1658  0.1412  0.2951
 1409SOL     OW 4267   2.273   3.912   2.407  0.7376 -0.5371  0.1747
 1409SOL    HW1 4268   2.266   3.826   2.367  0.3946 -0.3520 -0.1695
 1409SOL    HW2 4269   2.365   3.920   2.433  0.5549 -1.4151  1.1488
 1410SOL     OW 4270   3.461   2.399   2.570 -0.4297 -0.0279  0.2535
 1410SOL    HW1 4271   3.433   2.384   2.480  0.0087 -0.9675  0.2553
 1410SOL    HW2 4272   3.470   2.311   2.606  0.6732  0.3060  0.8174
 1411SOL     OW 4273   2.732   3.544   2.990 -0.6414  0.1533  0.0736
 1411SOL    HW1 4274   2.764   3.455   2.977  1.1764  0.8117 -0.3022
 1411SOL    HW2 4275   2.725   3.581   2.901 -1.1544  0.4711  0.2366
 1412SOL     OW 4276   2.333   2.569   2.057  0.2768  0.0157  0.1770
 1412SOL    HW1 4277   2.323   2.491   2.111 -0.8423 -1.6467 -2.2383
 1412SOL    HW2 4278   2.247   2.612   2.060  0.3810  0.2277  0.1723
 1413SOL     OW 4279   2.476   1.893   1.971 -0.3817 -0.2449 -0.2212
 1413SOL    HW1 4280   2.531   1.817   1.991 -0.2949 -0.0608  0.2540
 1413SOL    HW2 4281   2.442   1.875   1.883 -2.1578 -1.9063  0.7399
 1414SOL     OW 4282   3.150   2.010   2.765  0.3355  0.1299  0.0636
 1414SOL    HW1 4283   3.080   2.040   2.824 -1.2478  0.3802 -1.8432
 1414SOL    HW2 4284   3.228   2.007   2.820 -0.7749  1.6620  1.8441
 1415SOL     OW 4285   0.476   1.038   0.093  0.6462 -0.0414 -0.1396
 1415SOL    HW1 4286   0.485   1.099   0.166 -2.4356 -0.7159  0.9288
 1415SOL    HW2 4287   0.522   0.959   0.121 -0.5174 -0.2943  1.1216
 1416SOL     OW 4288   2.676   2.308   2.979 -0.4073 -0.1010 -0.2006
 1416SOL    HW1 4289   2.745   2.264   2.928 -0.8191  0.3662 -1.1843
 1416SOL    HW2 4290   2.595   2.268   2.948 -0.7293  0.8287 -0.5790
 1417SOL     OW 4291   2.462   2.222   2.261  0.2532  0.3929 -0.3893
 1417SOL    HW1 4292   2.547   2.183   2.278  0.0746  0.6276  1.1994
 1417SOL    HW2 4293   2.410   2.151   2.223  0.7328 -0.1391 -0.0617
 1418SOL     OW 4294   3.477   2.951   2.238 -0.5532 -0.9110 -0.3310
 1418SOL    HW1 4295   3.532   2.912   2.170 -0.5331  0.0417 -0.8766
 1418SOL    HW2 4296   3.423   3.015   2.192  1.6409  2.0805  0.9169
 1419SOL     OW 4297   1.858   2.036   1.904  0.3112  1.1283 -0.2364
 1419SOL    HW1 4298   1.801   2.109   1.881  0.6427  1.5213  0.1634
 1419SOL    HW2 4299   1.921   2.031   1.832  0.1952  1.1378 -0.3390
 1420SOL     OW 4300   3.101   1.904   2.523 -0.1117  0.5244  0.7461
 1420SOL    HW1 4301   3.016   1.892   2.566  0.2465 -0.2153  1.2733
 1420SOL    HW2 4302   3.160   1.929   2.594  0.0923  1.1382  0.3644
 1421SOL     OW 4303   3.067   3.447   2.918  0.4627  0.2131  0.3145
 1421SOL    HW1 4304   2.990   3.399   2.888  0.9811 -1.5834  1.6659
 1421SOL    HW2 4305   3.115   3.384   2.972  1.5473  2.0796  1.6494
 1422SOL     OW 4306   2.271   2.766   2.531 -0.1303  0.2106  0.2149
 1422SOL    HW1 4307   2.265   2.714   2.611  0.1089  0.1775  0.2149
 1422SOL    HW2 4308   2.334   2.718   2.477  0.8024  0.9723  0.5853
 1423SOL     OW 4309   3.127   4.043   2.570 -0.5268 -0.1306  0.8388
 1423SOL    HW1 4310   3.166   4.114   2.519  3.4994 -1.2831  1.9031
 1423SOL    HW2 4311   3.131   3.967   2.513  0.7347 -0.6787  1.6094
 1424SOL     OW 4312   2.951   1.874   2.304  0.0073 -0.3354  0.1467
 1424SOL    HW1 4313   3.006   1.887   2.382 -0.0942  0.7296  0.0527
 1424SOL    HW2 4314   3.007   1.898   2.231  0.4060 -2.2270 -0.2081
 1425SOL     OW 4315   3.681   4.508   0.299 -0.4609  0.1385 -0.2990
 1425SOL    HW1 4316   3.745   4.495   0.229 -0.7745  1.6305 -0.8980
 1425SOL    HW2 4317   3.722   4.571   0.358 -0.8578  0.1216  0.0018
 1426SOL     OW 4318   2.460   2.122   2.597  0.4300  0.8298 -0.1777
 1426SOL    HW1 4319   2.528   2.114   2.531 -0.1513  3.5896 -1.2275
 1426SOL    HW2 4320   2.379   2.105   2.550  0.1854 -0.5876  0.6645
 1427SOL     OW 4321   2.429   2.595   2.382 -0.0959  0.5580 -0.2368
 1427SOL    HW1 4322   2.349   2.556   2.347 -0.3893  1.3631 -0.4917
 1427SOL    HW2 4323   2.499   2.544   2.342 -0.4301  1.2291 -1.7986
 1428SOL     OW 4324   2.694   6.069   2.522 -0.4470  0.0874 -0.5722
 1428SOL    HW1 4325   2.694   6.049   2.429 -0.9340 -3.6399  0.1012
 1428SOL    HW2 4326   2.608   6.041   2.553  0.0534  0.3262  1.1664
 1429SOL     OW 4327   3.337   2.813   2.720 -0.1191 -0.1897 -0.1883
 1429SOL    HW1 4328   3.243   2.797   2.729 -0.2297  0.9710  0.8978
 1429SOL    HW2 4329   3.352   2.811   2.625 -1.3123  0.0680 -0.4022
 1430SOL     OW 4330   3.467   2.565   2.792  0.0497  0.3706 -0.2828
 1430SOL    HW1 4331   3.428   2.647   2.763 -1.5068 -0.5048 -0.7974
 1430SOL    HW2 4332   3.477   2.513   2.712  1.9575  0.3986 -0.1098
 1431SOL     OW 4333   4.084   2.187   1.892  0.4366  0.2891  0.4921
 1431SOL    HW1 4334   4.101   2.252   1.960  1.9880 -1.6492  2.0614
 1431SOL    HW2 4335   4.106   2.103   1.932 -3.0781 -1.4967 -0.8555
 1432SOL     OW 4336   2.673   3.153   2.161  0.3110  0.0364 -0.5857
 1432SOL    HW1 4337   2.612   3.087   2.195  1.2940 -0.7206 -0.2588
 1432SOL    HW2 4338   2.617   3.216   2.115 -0.6389 -1.0562 -0.9600
 1433SOL     OW 4339   3.801   3.073   2.452  0.2917 -0.4318  0.4708
 1433SOL    HW1 4340   3.768   3.133   2.520 -0.5356 -1.3643  0.9119
 1433SOL    HW2 4341   3.788   2.986   2.489  0.0818 -0.9473 -0.7797
 1434SOL     OW 4342   3.090   1.983   2.049 -0.4654  0.3540 -0.4019
 1434SOL    HW1 4343   3.043   2.064   2.068 -1.6704 -0.3179 -0.4160
 1434SOL    HW2 4344   3.155   1.976   2.119 -0.3850  1.2833 -0.3643
 1435SOL     OW 4345   2.341   2.016   2.155 -0.9747 -0.5513  0.2133
 1435SOL    HW1 4346   2.396   1.970   2.091 -0.8816 -1.3445  0.8438
 1435SOL    HW2 4347   2.259   2.032   2.109 -0.9624 -1.2455 -0.0594
 1436SOL     OW 4348   0.849   1.061   0.098  0.6090  0.0559  0.2510
 1436SOL    HW1 4349   0.887   1.024   0.019 -0.2325 -0.0116 -0.1308
 1436SOL    HW2 4350   0.781   0.999   0.123  1.6220 -0.5331  1.6956
 1437SOL     OW 4351   2.736   2.706   1.988  0.1106 -0.2055  0.5862
 1437SOL    HW1 4352   2.786   2.723   2.068  0.7817  3.3607 -0.4736
 1437SOL    HW2 4353   2.801   2.685   1.922 -0.2628 -0.8250  0.4041
 1438SOL     OW 4354   2.086   2.865   2.324  0.4104 -0.1499 -0.0588
 1438SOL    HW1 4355   2.174   2.896   2.348  0.5439 -0.4428 -0.1641
 1438SOL    HW2 4356   2.098   2.823   2.239 -0.0175  0.6545 -0.5214
 1439SOL     OW 4357   2.328   2.470   2.745  0.0009  0.1075  0.5140
 1439SOL    HW1 4358   2.285   2.543   2.788 -0.6550  0.8428 -1.2900
 1439SOL    HW2 4359   2.266   2.441   2.678  1.8914  0.6167 -1.5948
 1440SOL     OW 4360   3.133   2.988   2.437  0.2312 -0.5665 -0.4784
 1440SOL    HW1 4361   3.139   3.076   2.401 -1.0344 -1.3887 -2.9434
 1440SOL    HW2 4362   3.197   2.986   2.508  2.4250  1.4334 -2.2734
 1441SOL     OW 4363   3.639   2.840   2.032  0.1804  0.0054  0.1328
 1441SOL    HW1 4364   3.692   2.864   2.108  1.7658 -3.3538  0.2603
 1441SOL    HW2 4365   3.702   2.805   1.968 -1.4433 -0.1693 -1.4796
 1442SOL     OW 4366   3.057   2.759   2.699  0.1262  0.4072 -0.0401
 1442SOL    HW1 4367   3.032   2.678   2.654  0.3372  0.5129 -0.3502
 1442SOL    HW2 4368   3.017   2.829   2.647  1.6017  0.6248 -0.9319
 1443SOL     OW 4369   2.899   2.175   2.149  0.0631  0.4945  0.1405
 1443SOL    HW1 4370   2.942   2.176   2.235 -1.2060 -0.0926  0.8126
 1443SOL    HW2 4371   2.914   2.263   2.114  0.0635  0.9536  1.2376
 1444SOL     OW 4372   6.440   2.898   2.882  0.2976 -0.9841 -0.2902
 1444SOL    HW1 4373   6.437   2.925   2.974  0.0285  0.1009 -0.5941
 1444SOL    HW2 4374   6.349   2.893   2.855  0.3837 -0.8603 -0.6154
 1445SOL     OW 4375   0.474   0.304   0.119 -0.0768  0.3081 -0.8388
 1445SOL    HW1 4376   0.495   0.259   0.038 -1.2032 -1.5624 -0.1580
 1445SOL    HW2 4377   0.381   0.326   0.111  0.1078  1.2482 -0.5596
 1446SOL     OW 4378   2.174   2.067   2.533 -0.2270  0.2071 -0.0757
 1446SOL    HW1 4379   2.151   1.993   2.478 -0.3668  0.6297 -0.6002
 1446SOL    HW2 4380   2.128   2.052   2.616 -2.2294  0.9041 -0.9923
 1447SOL     OW 4381   3.713   2.306   1.917 -0.2312  0.6792  0.2259
 1447SOL    HW1 4382   3.750   2.239   1.974 -0.3390  0.7580  0.3900
 1447SOL    HW2 4383   3.690   2.378   1.976 -0.3789  0.7455  0.0887
 1448SOL     OW 4384   2.946   2.556   2.548 -0.0358  0.1235  0.2900
 1448SOL    HW1 4385   2.850   2.554   2.539 -0.0289 -2.6602  0.0263
 1448SOL    HW2 4386   2.973   2.466   2.532  2.7179  0.9606 -0.1555
 1449SOL     OW 4387   3.477   2.189   2.320 -0.3335  0.3002  0.0576
 1449SOL    HW1 4388   3.446   2.261   2.265  0.4359 -0.0918 -0.9286
 1449SOL    HW2 4389   3.560   2.162   2.279 -0.2555 -0.6797  0.8207
 1450SOL     OW 4390   3.367   2.217   1.893  0.4198  0.2704  0.1461
 1450SOL    HW1 4391   3.372   2.127   1.924 -1.5069 -0.4121 -1.3444
 1450SOL    HW2 4392   3.386   2.270   1.971 -2.6216 -1.3400  2.2230
 1451SOL     OW 4393   2.786   3.193   2.570 -0.7065 -0.6140  1.0691
 1451SOL    HW1 4394   2.791   3.261   2.503  0.9289 -0.8510  0.9060
 1451SOL    HW2 4395   2.692   3.179   2.583 -1.0694 -0.0507 -0.6451
 1452SOL     OW 4396   2.150   2.385   2.574  0.8778 -0.3244  0.2982
 1452SOL    HW1 4397   2.100   2.430   2.506 -1.2215  0.2563  2.1021
 1452SOL    HW2 4398   2.154   2.294   2.545  0.0877 -0.0882 -0.6107
 1453SOL     OW 4399   2.329   2.742   2.844  0.2246 -0.2333  0.2416
 1453SOL    HW1 4400   2.355   2.713   2.931 -0.3927  0.6792  0.7478
 1453SOL    HW2 4401   2.249   2.791   2.858  0.7194  0.8971 -0.6886
 1454SOL     OW 4402   2.113   2.775   2.067 -0.0673 -0.2536  0.0443
 1454SOL    HW1 4403   2.029   2.735   2.043 -0.4381  0.1996  0.5710
 1454SOL    HW2 4404   2.157   2.788   1.983 -1.0688  0.7045 -0.3590
 1455SOL     OW 4405   4.101   1.075   0.118  0.0597  0.1346 -0.6301
 1455SOL    HW1 4406   4.154   1.124   0.054 -0.7079  0.7079 -0.8471
 1455SOL    HW2 4407   4.164   1.021   0.165  0.7036  0.0308 -1.5789
 1456SOL     OW 4408   2.532   3.290   2.795  0.3519 -0.2452 -0.3171
 1456SOL    HW1 4409   2.466   3.277   2.862 -1.1945  0.6591 -1.6097
 1456SOL    HW2 4410   2.528   3.210   2.742  1.7034 -1.0419  0.7186
 1457SOL     OW 4411   2.903   2.678   2.964  0.2146 -0.1420  0.2347
 1457SOL    HW1 4412   2.957   2.755   2.946  0.8789 -0.1592  1.9708
 1457SOL    HW2 4413   2.876   2.647   2.877  1.7327  0.7590 -0.5977
 1458SOL     OW 4414   6.044   2.495   2.769  0.6077 -0.1548  0.5938
 1458SOL    HW1 4415   6.107   2.563   2.748  0.0172  0.6833  1.4643
 1458SOL    HW2 4416   6.095   2.427   2.812  0.8117  0.8760  2.0349
 1459SOL     OW 4417   2.716   2.067   1.711  0.1260  0.1261  0.3758
 1459SOL    HW1 4418   2.701   2.076   1.805 -0.5944 -1.2137  0.4160
 1459SOL    HW2 4419   2.632   2.086   1.670  0.4489  0.7580 -0.0212
 1460SOL     OW 4420   1.187   0.505   0.047 -0.6808 -0.2344 -0.0108
 1460SOL    HW1 4421   1.254   0.470  -0.013 -0.2739  0.2165  0.1751
 1460SOL    HW2 4422   1.215   0.595   0.064 -0.5320 -0.4865  1.2102
 1461SOL     OW 4423   2.155   2.207   1.737 -0.0354 -0.6692 -0.3239
 1461SOL    HW1 4424   2.243   2.244   1.746 -0.2296 -0.1529 -0.5505
 1461SOL    HW2 4425   2.102   2.278   1.701 -0.6657 -0.8235  0.2797
 1462SOL     OW 4426   4.105   0.508   0.702  0.0855  0.2507  0.1232
 1462SOL    HW1 4427   4.080   0.558   0.780 -0.5655  0.3952 -0.1674
 1462SOL    HW2 4428   4.022   0.493   0.657  0.3251 -0.7343 -0.0078
 1463SOL     OW 4429   3.424   2.642   2.111 -0.0524  0.2329 -0.4376
 1463SOL    HW1 4430   3.361   2.684   2.171 -0.8319  1.8869 -2.3166
 1463SOL    HW2 4431   3.484   2.711   2.086  0.4458 -0.4964 -1.3383
 1464SOL     OW 4432   3.027   3.149   2.716  0.4887 -0.5176 -0.0581
 1464SOL    HW1 4433   2.945   3.133   2.668  0.8456 -0.3483 -0.7392
 1464SOL    HW2 4434   3.093   3.100   2.667  1.0906  0.6901 -0.4937
 1465SOL     OW 4435   6.161   3.347   2.620  0.0936  0.1402 -0.1087
 1465SOL    HW1 4436   6.154   3.337   2.525  1.4005 -1.3057 -0.0903
 1465SOL    HW2 4437   6.105   3.277   2.655  0.6178 -0.1418  0.1691
 1466SOL     OW 4438   4.001   2.341   2.520 -0.0242  0.6224 -0.6177
 1466SOL    HW1 4439   3.933   2.319   2.457 -0.2876  0.1498 -0.1702
 1466SOL    HW2 4440   4.066   2.272   2.511 -0.2779  0.3044 -0.0570
 1467SOL     OW 4441   3.130   3.829   2.353  0.4389 -0.5046  0.2072
 1467SOL    HW1 4442   3.198   3.765   2.338 -0.3362 -0.7919 -2.8100
 1467SOL    HW2 4443   3.074   3.790   2.420  1.3946 -1.7656  0.3075
 1468SOL     OW 4444   3.199   2.785   2.203 -0.1657 -0.9082  0.6376
 1468SOL    HW1 4445   3.170   2.838   2.277 -0.1990 -0.4759  0.3147
 1468SOL    HW2 4446   3.139   2.808   2.132  0.3710 -0.7320  0.2431
 1469SOL     OW 4447   2.726   3.817   2.440 -0.0531  0.6798 -0.7275
 1469SOL    HW1 4448   2.678   3.738   2.412  1.3451  0.6523 -3.3912
 1469SOL    HW2 4449   2.659   3.885   2.446 -1.4568 -0.8081  2.5833
 1470SOL     OW 4450   3.488   2.138   2.680 -0.2046  0.2162  0.3971
 1470SOL    HW1 4451   3.445   2.151   2.765 -0.7276  1.2095 -0.0029
 1470SOL    HW2 4452   3.516   2.047   2.681  0.2148  0.3336  1.8363
 1471SOL     OW 4453   2.008   2.276   2.299  0.5801  0.1626 -0.0676
 1471SOL    HW1 4454   2.000   2.195   2.350 -0.3555 -0.0797 -0.5875
 1471SOL    HW2 4455   1.927   2.281   2.249  0.7507  1.2866 -0.2493
 1472SOL     OW 4456   2.694   2.352   1.901  0.2037  0.0376 -0.0246
 1472SOL    HW1 4457   2.676   2.258   1.902 -1.0476  0.2608  1.0764
 1472SOL    HW2 4458   2.675   2.379   1.811 -3.7622 -0.0494  0.6220
 1473SOL     OW 4459   3.341   3.108   2.051  0.2011  0.4121  0.8622
 1473SOL    HW1 4460   3.281   3.052   2.001 -1.8471  1.9440  1.4917
 1473SOL    HW2 4461   3.407   3.135   1.987 -0.4305 -0.3896 -0.1591
 1474SOL     OW 4462   2.892   2.886   2.517 -0.2178 -0.2251 -0.5326
 1474SOL    HW1 4463   2.946   2.958   2.484 -1.8560  1.5613  0.4513
 1474SOL    HW2 4464   2.802   2.919   2.510 -1.0748 -2.4228 -0.5591
 1475SOL     OW 4465   2.678   2.096   2.395 -0.4967  0.4075 -0.6148
 1475SOL    HW1 4466   2.742   2.039   2.353 -0.4138  0.3291 -0.3826
 1475SOL    HW2 4467   2.727   2.176   2.416  0.0581 -0.3742  1.3355
 1476SOL     OW 4468   2.782   3.349   2.333 -0.2032  0.4129  0.0109
 1476SOL    HW1 4469   2.734   3.431   2.333  0.0696  0.5895  1.2245
 1476SOL    HW2 4470   2.739   3.296   2.266 -0.8009  1.2928 -0.3179
 1477SOL     OW 4471   2.544   2.911   2.239 -0.0643 -0.2740 -0.5844
 1477SOL    HW1 4472   2.572   2.854   2.311  1.8154  1.0997 -0.1417
 1477SOL    HW2 4473   2.489   2.977   2.282 -0.4767 -0.5205 -0.7317
 1478SOL     OW 4474   2.076   2.321   1.311 -0.4018 -0.1363  0.0881
 1478SOL    HW1 4475   2.056   2.397   1.256 -2.6180 -1.0916 -0.5395
 1478SOL    HW2 4476   2.033   2.340   1.394 -0.6807 -0.5465  0.0394
 1479SOL     OW 4477   1.865   1.720   1.425 -0.4000  0.1924 -0.6717
 1479SOL    HW1 4478   1.834   1.767   1.348  1.5400  1.0338 -0.9829
 1479SOL    HW2 4479   1.939   1.771   1.457 -0.3072 -0.8834  0.9561
 1480SOL     OW 4480   3.102   2.930   1.995 -0.2972  0.0751 -0.2114
 1480SOL    HW1 4481   3.055   2.873   1.935 -0.5745 -1.5623  1.4649
 1480SOL    HW2 4482   3.037   2.992   2.026 -0.5980 -0.2414 -0.2082
 1481SOL     OW 4483   3.283   3.642   3.014  0.6300  0.2430  0.5619
 1481SOL    HW1 4484   3.202   3.613   2.973  1.4501 -2.0358  0.4009
 1481SOL    HW2 4485   3.255   3.698   3.086 -1.2185 -1.7097  1.4925
 1482SOL     OW 4486   3.058   2.208   2.380 -0.4019 -0.2090  0.4482
 1482SOL    HW1 4487   3.041   2.214   2.474 -0.9419 -3.1051  0.6113
 1482SOL    HW2 4488   3.120   2.279   2.363 -0.0007  0.1655  3.0551
 1483SOL     OW 4489   2.646   2.466   2.243 -0.3322  0.1342  0.0498
 1483SOL    HW1 4490   2.695   2.544   2.216 -2.3633  1.6054  0.2675
 1483SOL    HW2 4491   2.634   2.416   2.162  1.6939 -0.4315  0.0493
 1484SOL     OW 4492   0.398   1.521   0.134  0.3754  0.5251  0.0353
 1484SOL    HW1 4493   0.440   1.485   0.056 -0.5351 -0.8896  0.1619
 1484SOL    HW2 4494   0.465   1.575   0.175  1.6845 -0.7440 -0.3704
 1485SOL     OW 4495   2.523   2.846   2.694  0.2005  0.1324 -0.4289
 1485SOL    HW1 4496   2.453   2.795   2.735  1.4483 -2.9334 -1.8651
 1485SOL    HW2 4497   2.582   2.868   2.766 -1.6042  1.8780  0.6294
 1486SOL     OW 4498   2.924   2.646   1.814  0.2015 -0.1481  0.4187
 1486SOL    HW1 4499   2.918   2.599   1.731  0.6129  0.2587  0.1496
 1486SOL    HW2 4500   2.918   2.739   1.789 -0.2543 -0.0400  0.9040
 1487SOL     OW 4501   3.292   3.365   2.511  0.1902  0.0629  0.0528
 1487SOL    HW1 4502   3.248   3.358   2.426  1.0235 -0.1464 -0.3804
 1487SOL    HW2 4503   3.222   3.374   2.575 -0.4260  1.5767 -0.7822
 1488SOL     OW 4504   2.398   3.141   2.319 -0.3254  0.4418  0.3679
 1488SOL    HW1 4505   2.422   3.161   2.410 -1.8379 -0.9258  1.1159
 1488SOL    HW2 4506   2.319   3.192   2.303  0.0723  0.8702 -0.2923
 1489SOL     OW 4507   2.251   2.391   2.222  0.2341  0.3208  0.3533
 1489SOL    HW1 4508   2.314   2.319   2.230  0.9166  1.0446  1.9187
 1489SOL    HW2 4509   2.168   2.353   2.253  0.1183 -0.3435 -0.7364
 1490SOL     OW 4510   2.807   3.311   2.840 -0.5318 -0.2095  0.0200
 1490SOL    HW1 4511   2.711   3.316   2.832 -0.5413  0.3632  0.4074
 1490SOL    HW2 4512   2.834   3.257   2.767 -1.3466 -2.2775  1.1577
 1491SOL     OW 4513   3.215   2.390   2.853 -0.2890 -0.0936 -0.1996
 1491SOL    HW1 4514   3.285   2.450   2.829 -0.6759 -0.3663 -2.1824
 1491SOL    HW2 4515   3.185   2.420   2.938  1.1845  0.9804 -0.0311
 1492SOL     OW 4516   2.769   5.649   2.920 -0.1109  0.0542  1.0595
 1492SOL    HW1 4517   2.763   5.734   2.876 -1.2764 -0.4953  0.0887
 1492SOL    HW2 4518   2.759   5.585   2.849 -1.2882 -0.8748  2.0221
 1493SOL     OW 4519   2.940   3.132   2.082 -0.4224 -1.0532  0.1973
 1493SOL    HW1 4520   2.988   3.177   2.152 -0.3796  1.6206 -1.3894
 1493SOL    HW2 4521   2.848   3.142   2.105 -0.4853  1.0816 -0.6868
 1494SOL     OW 4522   3.271   2.008   2.281  0.0763 -0.5464 -0.1555
 1494SOL    HW1 4523   3.351   2.050   2.314  0.3786  1.8291 -3.4228
 1494SOL    HW2 4524   3.200   2.055   2.326  0.4844  0.0602 -0.1279
 1495SOL     OW 4525   3.055   2.288   2.646 -0.4263  0.2952 -0.3720
 1495SOL    HW1 4526   3.086   2.349   2.712  0.0029  1.1912 -1.3713
 1495SOL    HW2 4527   3.109   2.210   2.659  0.8061  1.0580 -0.6905
 1496SOL     OW 4528   3.651   2.373   2.892 -0.3623  0.4770 -0.0133
 1496SOL    HW1 4529   3.576   2.432   2.905  1.0600  2.0952  1.2611
 1496SOL    HW2 4530   3.702   2.414   2.823  1.1809  1.3927  1.5887
 1497SOL     OW 4531   1.880   2.669   1.927  0.2214  0.0833 -0.4497
 1497SOL    HW1 4532   1.796   2.643   1.967  0.8019  0.7102  1.2409
 1497SOL    HW2 4533   1.900   2.597   1.867 -2.5739  0.9076 -2.5891
 1498SOL     OW 4534   2.968   3.721   2.537  0.1664 -0.0796 -0.0479
 1498SOL    HW1 4535   2.879   3.753   2.523  0.7382  1.1108 -1.1748
 1498SOL    HW2 4536   2.977   3.717   2.632 -1.2268 -0.6427  0.0856
 1499SOL     OW 4537   1.795   4.271   0.188  0.5750  0.2800  0.0496
 1499SOL    HW1 4538   1.728   4.335   0.165  0.7041 -0.0952 -1.4431
 1499SOL    HW2 4539   1.747   4.191   0.208  0.4648  0.5984  1.1120
 1500SOL     OW 4540   2.048   3.955   1.259 -0.0569 -0.2236  0.5556
 1500SOL    HW1 4541   2.059   3.967   1.165 -0.0770 -0.3060  0.5421
 1500SOL    HW2 4542   2.083   3.867   1.277 -2.1929 -1.2210  0.2248
 1501SOL     OW 4543   1.857   4.223   0.826 -0.3437  0.2255  0.0114
 1501SOL    HW1 4544   1.768   4.198   0.799 -0.5097 -0.9197  1.4946
 1501SOL    HW2 4545   1.905   4.140   0.830  0.4332  0.6866  0.4798
 1502SOL     OW 4546   3.581   4.230   0.384 -0.1498 -0.1044  0.0860
 1502SOL    HW1 4547   3.624   4.314   0.372 -0.6454  0.6231  2.7178
 1502SOL    HW2 4548   3.638   4.181   0.443 -1.5878 -0.1307  1.5436
 1503SOL     OW 4549   2.572   4.440   1.728 -0.4270 -0.5077 -0.3946
 1503SOL    HW1 4550   2.603   4.351   1.740 -0.1538 -0.6317 -1.8529
 1503SOL    HW2 4551   2.600   4.464   1.639 -1.3758  0.6602 -0.4056
 1504SOL     OW 4552   3.263   4.103   0.657  0.1840  0.1580 -0.2931
 1504SOL    HW1 4553   3.285   4.138   0.744  0.0635 -1.1446  0.2829
 1504SOL    HW2 4554   3.321   4.028   0.646 -0.8902 -0.6414 -0.6441
 1505SOL     OW 4555   2.031   4.286   0.601  0.2935 -0.8054  0.2458
 1505SOL    HW1 4556   1.949   4.270   0.647  0.0638 -0.1962  0.0560
 1505SOL    HW2 4557   2.045   4.206   0.549 -1.3534 -0.0618 -1.4701
 1506SOL     OW 4558   2.242   3.825   0.363 -0.1059 -0.3511  0.4829
 1506SOL    HW1 4559   2.263   3.911   0.328 -0.1612 -0.8465 -0.8422
 1506SOL    HW2 4560   2.146   3.819   0.357 -0.1024 -0.5005  0.5606
 1507SOL     OW 4561   2.250   4.131   1.577 -0.0522 -0.1704  0.3681
 1507SOL    HW1 4562   2.280   4.042   1.561  1.3841  0.1207  1.2687
 1507SOL    HW2 4563   2.308   4.186   1.525 -0.2030  0.3019  0.6903
 1508SOL     OW 4564   3.189   4.125   1.151  0.0103  0.5162 -0.1915
 1508SOL    HW1 4565   3.202   4.175   1.070 -1.6097  0.3612 -0.5810
 1508SOL    HW2 4566   3.249   4.165   1.213 -0.6722  2.4789 -0.7023
 1509SOL     OW 4567   2.990   4.180   1.589  0.3576 -0.3707 -0.1298
 1509SOL    HW1 4568   3.032   4.248   1.537  1.7411 -1.8137 -0.9986
 1509SOL    HW2 4569   2.938   4.130   1.526  0.5296 -0.9840  0.2038
 1510SOL     OW 4570   2.841   4.174   0.758 -0.0998 -0.6789  0.6971
 1510SOL    HW1 4571   2.918   4.135   0.716  0.8893  1.2172  0.6395
 1510SOL    HW2 4572   2.769   4.156   0.697  0.7596 -0.4685 -0.4266
 1511SOL     OW 4573   2.881   0.416   0.485  0.0001 -0.0320  0.3361
 1511SOL    HW1 4574   2.818   0.384   0.549  0.3640  0.1572  0.7885
 1511SOL    HW2 4575   2.879   0.351   0.415 -1.4324  0.4725 -0.1297
 1512SOL     OW 4576   2.286   4.196   0.657  0.3898 -0.1300  0.2071
 1512SOL    HW1 4577   2.225   4.244   0.714 -1.3178  0.0728 -1.6673
 1512SOL    HW2 4578   2.242   4.113   0.640  1.4634 -0.7029  0.1793
 1513SOL     OW 4579   3.437   4.166   2.142  0.1853  0.3330  0.5470
 1513SOL    HW1 4580   3.382   4.173   2.064  1.0104 -0.1341 -0.0920
 1513SOL    HW2 4581   3.518   4.213   2.119  0.7828 -0.5388  0.7828
 1514SOL     OW 4582   2.606   3.710   0.982  0.3455 -0.0564 -0.2787
 1514SOL    HW1 4583   2.619   3.775   1.050 -1.6201  1.1759 -0.9920
 1514SOL    HW2 4584   2.610   3.759   0.900  0.3321 -1.0971 -0.9196
 1515SOL     OW 4585   3.242   4.585   1.280  0.4930 -0.4739 -0.2311
 1515SOL    HW1 4586   3.200   4.635   1.211 -1.2348 -2.2202 -0.5284
 1515SOL    HW2 4587   3.220   4.631   1.361 -1.4307 -0.9233 -0.4527
 1516SOL     OW 4588   2.304   3.720   1.338 -0.0577 -0.5556  0.1409
 1516SOL    HW1 4589   2.307   3.746   1.430  0.9358  2.1840 -0.5589
 1516SOL    HW2 4590   2.388   3.748   1.303  0.0937 -2.6869 -1.3766
 1517SOL     OW 4591   3.147   3.717   0.676  0.4508  0.1344 -0.1591
 1517SOL    HW1 4592   3.139   3.625   0.702 -0.4449  0.3108  0.2238
 1517SOL    HW2 4593   3.062   3.756   0.698 -0.1897  0.4407 -2.8136
 1518SOL     OW 4594   3.286   3.959   1.582  0.4981  0.0941  0.0567
 1518SOL    HW1 4595   3.202   4.005   1.584  0.7609  0.5631  0.5160
 1518SOL    HW2 4596   3.350   4.024   1.610  1.3663  0.4514 -2.4962
 1519SOL     OW 4597   2.920   3.791   2.167  0.1099  0.1576 -0.9512
 1519SOL    HW1 4598   2.945   3.798   2.075 -0.0085 -3.6191 -1.4286
 1519SOL    HW2 4599   3.003   3.782   2.214  0.1078 -0.3550 -1.0342
 1520SOL     OW 4600   3.352   4.444   1.572  0.0751 -0.2805  0.0148
 1520SOL    HW1 4601   3.395   4.528   1.562 -0.8300  0.1466 -0.4020
 1520SOL    HW2 4602   3.267   4.465   1.610  0.8490 -1.2679  2.4975
 1521SOL     OW 4603   2.055   3.512   0.080  0.0348 -0.2451 -0.1942
 1521SOL    HW1 4604   2.148   3.536   0.085 -0.2348  0.6019  1.8056
 1521SOL    HW2 4605   2.047   3.434   0.135 -0.6625  0.6033  0.9630
 1522SOL     OW 4606   2.907   3.889   0.131 -0.0611 -0.5583 -0.1027
 1522SOL    HW1 4607   2.933   3.920   0.044  0.4502 -0.1904  0.1793
 1522SOL    HW2 4608   2.969   3.929   0.191 -0.3183 -0.9307  0.4247
 1523SOL     OW 4609   2.041   4.362   1.473  0.3190 -0.4261  0.9107
 1523SOL    HW1 4610   2.111   4.314   1.516  0.1247 -1.9539 -0.3839
 1523SOL    HW2 4611   2.036   4.325   1.385  0.6047  2.4651 -0.4588
 1524SOL     OW 4612   2.585   3.785   1.341  1.0939 -0.1458 -0.5558
 1524SOL    HW1 4613   2.536   3.853   1.389 -1.3341 -0.8576 -1.8463
 1524SOL    HW2 4614   2.620   3.830   1.264 -0.3116 -0.2450 -1.2875
 1525SOL     OW 4615   2.664   3.878   0.707  0.0002  0.1324 -0.4757
 1525SOL    HW1 4616   2.658   3.961   0.660 -0.9617  0.1015 -0.4362
 1525SOL    HW2 4617   2.744   3.884   0.758  0.7375  0.4253 -1.6414
 1526SOL     OW 4618   3.186   4.525   0.886  0.3203 -0.3270 -0.1489
 1526SOL    HW1 4619   3.180   4.493   0.796  1.1592  1.0728 -0.7494
 1526SOL    HW2 4620   3.114   4.483   0.932 -0.8537 -0.1786 -1.7795
 1527SOL     OW 4621   4.542   6.183   2.983 -0.1620 -0.1218  0.1446
 1527SOL    HW1 4622   4.528   6.128   3.060  0.2956  0.2127  0.4734
 1527SOL    HW2 4623   4.564   6.122   2.913  2.5158 -0.2625  0.9996
 1528SOL     OW 4624   2.889   3.903   1.526  0.3670 -0.1030 -0.2583
 1528SOL    HW1 4625   2.917   3.833   1.585 -0.4499 -0.5725 -0.4073
 1528SOL    HW2 4626   2.959   3.911   1.462  0.1244 -1.3166 -0.6902
 1529SOL     OW 4627   3.110   4.344   1.390 -0.0978  0.2893  0.2174
 1529SOL    HW1 4628   3.140   4.426   1.352 -0.3246  0.2589 -0.0286
 1529SOL    HW2 4629   3.188   4.288   1.393 -0.1664  0.1397 -0.6015
 1530SOL     OW 4630   2.476   4.036   0.879  0.1515 -0.6024 -0.2010
 1530SOL    HW1 4631   2.523   4.097   0.935  0.1493 -2.0014  1.3835
 1530SOL    HW2 4632   2.528   4.032   0.799 -0.2732  2.0503 -0.7129
 1531SOL     OW 4633   2.404   3.896   1.569  0.0686  0.4279 -0.1247
 1531SOL    HW1 4634   2.368   3.814   1.603  0.3124 -0.6128 -2.1682
 1531SOL    HW2 4635   2.478   3.916   1.626 -1.4220  0.5753  1.8674
 1532SOL     OW 4636   2.843   3.682   1.298 -0.0318 -0.1606  0.2884
 1532SOL    HW1 4637   2.784   3.678   1.373  0.6064 -1.3956  0.7633
 1532SOL    HW2 4638   2.889   3.765   1.307 -2.2096  1.2346 -0.5364
 1533SOL     OW 4639   2.662   4.203   0.968 -0.0117 -0.4294 -0.2910
 1533SOL    HW1 4640   2.730   4.200   0.900  0.4062  0.4216  0.0788
 1533SOL    HW2 4641   2.708   4.232   1.046 -0.7779  0.0256 -0.0044
 1534SOL     OW 4642   2.282   4.070   0.255  0.0558  0.7161 -0.4459
 1534SOL    HW1 4643   2.210   4.117   0.212  0.7042  1.7697 -0.4095
 1534SOL    HW2 4644   2.347   4.137   0.275  1.4141 -0.3184 -1.1770
 1535SOL     OW 4645   5.590   6.227   2.898 -0.7745 -0.0465 -0.0508
 1535SOL    HW1 4646   5.665   6.233   2.958 -1.8673 -2.5490  1.7286
 1535SOL    HW2 4647   5.544   6.310   2.909  0.1612  0.3552  1.0457
 1536SOL     OW 4648   3.576   4.124   0.103  0.3008 -0.1583  0.0681
 1536SOL    HW1 4649   3.530   4.049   0.139 -0.2114 -0.3882 -1.0224
 1536SOL    HW2 4650   3.578   4.188   0.174  0.5993 -1.1388  0.9488
 1537SOL     OW 4651   2.140   4.120   1.000  0.3284 -0.4704  0.4933
 1537SOL    HW1 4652   2.074   4.107   0.931  0.6179 -0.9137  0.2937
 1537SOL    HW2 4653   2.191   4.039   1.000 -0.6518 -1.1655  2.3047
 1538SOL     OW 4654   2.759   4.314   1.466  0.3765 -0.1807 -0.0548
 1538SOL    HW1 4655   2.832   4.336   1.524  0.9048 -1.0017 -0.3954
 1538SOL    HW2 4656   2.700   4.389   1.472  0.2895 -0.3600  1.7611
 1539SOL     OW 4657   3.659   4.253   1.446  0.0023  0.4232  0.1689
 1539SOL    HW1 4658   3.708   4.177   1.415 -0.6105 -0.4113  1.1738
 1539SOL    HW2 4659   3.725   4.309   1.488  0.8616  1.6175 -2.5680
 1540SOL     OW 4660   1.428   4.019   1.132 -0.4359  0.4246 -0.6210
 1540SOL    HW1 4661   1.384   4.019   1.047  0.7375 -0.0531 -1.2592
 1540SOL    HW2 4662   1.421   3.929   1.163 -0.6011  0.5298 -0.3519
 1541SOL     OW 4663   2.357   4.337   1.360 -0.0149  0.1369  0.3195
 1541SOL    HW1 4664   2.341   4.365   1.270  0.1872  0.9780  0.5335
 1541SOL    HW2 4665   2.444   4.297   1.358 -0.0375  0.0981  0.1268
 1542SOL     OW 4666   2.472   3.833   0.103  0.0449  0.2448 -0.2956
 1542SOL    HW1 4667   2.564   3.809   0.097  0.1228 -0.4095  2.4379
 1542SOL    HW2 4668   2.463   3.876   0.188 -1.9504  1.4701 -1.0382
 1543SOL     OW 4669   2.920   4.070   1.085 -0.1734 -0.8330 -0.6787
 1543SOL    HW1 4670   3.008   4.041   1.108  0.4567 -0.4750 -2.5083
 1543SOL    HW2 4671   2.919   4.164   1.107  0.1710 -0.6604 -1.3904
 1544SOL     OW 4672   2.689   3.926   1.136  0.1659 -0.1683  0.2507
 1544SOL    HW1 4673   2.777   3.962   1.143  0.4251 -1.0605  2.2683
 1544SOL    HW2 4674   2.631   4.002   1.144  0.7385  0.1278  2.2233
 1545SOL     OW 4675   3.716   3.993   0.461  0.5685  0.4344 -0.1560
 1545SOL    HW1 4676   3.709   4.024   0.552 -1.7724  1.9015 -0.7669
 1545SOL    HW2 4677   3.805   4.019   0.435  0.5757  1.8288  1.0931
 1546SOL     OW 4678   3.741   4.165   0.994  0.2649  0.2408  0.2407
 1546SOL    HW1 4679   3.828   4.161   1.032 -0.8856 -1.5365  2.9795
 1546SOL    HW2 4680   3.688   4.105   1.047 -3.1673  2.8429  0.1231
 1547SOL     OW 4681   2.136   4.006   0.551 -0.3888  0.4799  0.4470
 1547SOL    HW1 4682   2.053   4.005   0.504 -0.3607 -1.0744  0.3842
 1547SOL    HW2 4683   2.188   3.939   0.508  0.1311 -0.0258  1.8364
 1548SOL     OW 4684   3.063   3.888   1.315 -0.0719  0.2995 -0.3963
 1548SOL    HW1 4685   3.095   3.976   1.292  1.1017  0.7317  2.5030
 1548SOL    HW2 4686   3.136   3.830   1.295 -0.8682 -0.0866 -2.3658
 1549SOL     OW 4687   4.083   4.195   1.524  0.4743 -0.0782 -0.3124
 1549SOL    HW1 4688   4.101   4.166   1.614 -3.3934  0.2074  0.7494
 1549SOL    HW2 4689   4.113   4.122   1.469 -0.3314 -1.9008  1.5285
 1550SOL     OW 4690   2.650   3.985   1.628  0.0961  0.0571  0.0983
 1550SOL    HW1 4691   2.735   3.954   1.596  0.3422  1.2534 -0.4493
 1550SOL    HW2 4692   2.671   4.061   1.682 -0.6566  0.8279 -0.6618
 1551SOL     OW 4693   3.797   6.257   2.917  0.2888 -0.1327  0.3584
 1551SOL    HW1 4694   3.777   6.271   2.825 -1.1691 -1.5732  0.4146
 1551SOL    HW2 4695   3.743   6.182   2.942  0.1348  0.6566  2.5660
 1552SOL     OW 4696   1.931   4.058   0.368  0.1618  0.3318 -0.2186
 1552SOL    HW1 4697   1.925   4.121   0.296 -1.2041  0.1228 -0.3106
 1552SOL    HW2 4698   1.898   3.976   0.331  0.0713  0.0562  0.4603
 1553SOL     OW 4699   2.731   4.613   1.846  0.6056  0.0282 -0.1429
 1553SOL    HW1 4700   2.662   4.557   1.810  1.0427 -1.4083  1.1807
 1553SOL    HW2 4701   2.807   4.556   1.854  1.3201  1.0337  0.4316
 1554SOL     OW 4702   3.107   4.371   0.681 -0.1324  0.2455 -0.2830
 1554SOL    HW1 4703   3.132   4.291   0.636 -1.4652  0.0645 -0.7759
 1554SOL    HW2 4704   3.028   4.400   0.635 -0.0271  1.5014  0.2830
 1555SOL     OW 4705   3.856   4.359   1.589 -0.0288  0.1369 -0.2799
 1555SOL    HW1 4706   3.937   4.312   1.567  1.7961  2.7974  0.2018
 1555SOL    HW2 4707   3.861   4.371   1.684 -1.3638 -0.2224 -0.1443
 1556SOL     OW 4708   3.807   4.040   1.353  0.3382  0.0845  0.5655
 1556SOL    HW1 4709   3.874   4.071   1.292  0.1734 -0.0099  0.3351
 1556SOL    HW2 4710   3.746   3.991   1.299 -1.2764  2.2336  0.2929
 1557SOL     OW 4711   1.818   3.657   0.040  0.1941 -0.2124  0.1546
 1557SOL    HW1 4712   1.798   3.712  -0.035  1.4956  1.2389  0.8009
 1557SOL    HW2 4713   1.908   3.626   0.024  0.7739  0.7193  1.4076
 1558SOL     OW 4714   2.318   4.593   1.821  0.5534 -0.0463  0.0632
 1558SOL    HW1 4715   2.363   4.661   1.772 -0.3279 -0.4262 -1.3167
 1558SOL    HW2 4716   2.351   4.511   1.785 -1.5890 -0.3392 -1.3873
 1559SOL     OW 4717   3.384   4.258   1.277  0.0143  0.2931 -0.2694
 1559SOL    HW1 4718   3.402   4.344   1.239  1.4304  0.3999  0.5865
 1559SOL    HW2 4719   3.460   4.239   1.331 -0.5857 -1.2107  0.0953
 1560SOL     OW 4720   3.195   3.700   1.542 -0.0698  0.2488 -0.3057
 1560SOL    HW1 4721   3.229   3.783   1.576 -0.9752  1.1448 -1.4982
 1560SOL    HW2 4722   3.229   3.695   1.452 -2.1185  0.6546 -1.1646
 1561SOL     OW 4723   2.872   4.447   0.552  0.3081  0.4824 -0.1772
 1561SOL    HW1 4724   2.821   4.386   0.498 -0.9485  0.9665  0.4474
 1561SOL    HW2 4725   2.807   4.504   0.592  1.3688  1.2728  0.4450
 1562SOL     OW 4726   3.586   3.996   1.177  0.4758  0.1085 -0.1763
 1562SOL    HW1 4727   3.496   3.996   1.210  0.9691 -1.2098  1.2763
 1562SOL    HW2 4728   3.598   3.909   1.139  1.6023 -0.3321  1.0999
 1563SOL     OW 4729   4.435   1.341   0.485  0.5217  0.3779  0.3638
 1563SOL    HW1 4730   4.344   1.370   0.489 -0.0811 -1.2941 -0.4594
 1563SOL    HW2 4731   4.462   1.357   0.395  0.3045 -1.1768  0.0047
 1564SOL     OW 4732   2.033   4.021   2.789  0.3281  0.3472  0.3847
 1564SOL    HW1 4733   2.109   4.079   2.796 -0.2351  1.0764  0.4924
 1564SOL    HW2 4734   2.056   3.960   2.718  1.4848 -0.1711  1.1765
 1565SOL     OW 4735   3.554   3.964   2.009  0.3919 -0.3866 -0.1684
 1565SOL    HW1 4736   3.574   3.890   2.067  1.8759  1.3867  1.7318
 1565SOL    HW2 4737   3.488   4.014   2.056 -2.5993 -1.7356 -2.6229
 1566SOL     OW 4738   3.144   4.025   2.125 -0.3581 -0.0713 -0.4240
 1566SOL    HW1 4739   3.222   3.986   2.085  0.9963  2.5895 -0.6095
 1566SOL    HW2 4740   3.150   4.000   2.217 -0.6115 -1.8161 -0.8347
 1567SOL     OW 4741   1.199   1.745   0.397 -0.3736  0.2459  0.0528
 1567SOL    HW1 4742   1.235   1.812   0.339 -1.8719 -0.2617 -1.5556
 1567SOL    HW2 4743   1.105   1.765   0.402 -0.7160 -1.2419  0.1885
 1568SOL     OW 4744   6.200   4.254   2.753 -0.3193 -0.4146  0.7598
 1568SOL    HW1 4745   6.229   4.332   2.800  0.7398 -0.8349  0.8154
 1568SOL    HW2 4746   6.261   4.186   2.779 -0.2784 -0.8837 -0.5190
 1569SOL     OW 4747   2.653   4.009   2.182  0.1310  0.3810 -0.0270
 1569SOL    HW1 4748   2.680   3.964   2.262 -1.3670  0.9432  0.8509
 1569SOL    HW2 4749   2.734   4.045   2.146  1.0301 -1.0927  0.4545
 1570SOL     OW 4750   1.045   1.946   0.115  0.2327  0.4431 -0.4732
 1570SOL    HW1 4751   1.014   1.882   0.050 -0.7514 -0.2851  0.6722
 1570SOL    HW2 4752   1.134   1.918   0.135  0.1292 -0.0250 -0.6492
 1571SOL     OW 4753   6.256   4.579   2.744  0.3679 -0.5046  0.8435
 1571SOL    HW1 4754   6.324   4.599   2.680 -0.6117 -0.8876 -0.3654
 1571SOL    HW2 4755   6.297   4.596   2.829  2.1290 -1.2289  0.1866
 1572SOL     OW 4756   2.672   4.203   1.834 -0.1755  0.1258  0.2696
 1572SOL    HW1 4757   2.719   4.226   1.914 -1.9162  1.1201  1.0563
 1572SOL    HW2 4758   2.595   4.156   1.865 -0.1254 -0.8046 -0.9425
 1573SOL     OW 4759   2.819   4.356   3.017  0.6514  0.2740  0.0938
 1573SOL    HW1 4760   2.838   4.303   2.940  3.0797  0.7702  0.2653
 1573SOL    HW2 4761   2.853   4.304   3.090  0.0367  0.6196  0.6347
 1574SOL     OW 4762   3.438   4.340   2.670 -0.1459  0.0158 -0.4309
 1574SOL    HW1 4763   3.503   4.311   2.734 -0.5749 -1.0011 -0.4410
 1574SOL    HW2 4764   3.354   4.319   2.710 -0.4580  0.8203 -0.6557
 1575SOL     OW 4765   3.528   3.782   2.401 -0.1744 -0.1340 -0.3720
 1575SOL    HW1 4766   3.453   3.727   2.376 -0.6862 -0.1098  1.0421
 1575SOL    HW2 4767   3.496   3.835   2.474  0.6465  1.2793 -0.9991
 1576SOL     OW 4768   2.419   3.688   2.185 -0.0715  0.1691  0.2015
 1576SOL    HW1 4769   2.470   3.624   2.235 -0.3767 -2.4622 -2.5831
 1576SOL    HW2 4770   2.480   3.718   2.117 -0.9371  0.3657 -0.4936
 1577SOL     OW 4771   1.299   2.189   0.151  0.4191  0.1834 -0.1210
 1577SOL    HW1 4772   1.302   2.204   0.245 -0.6685 -2.7645  0.5125
 1577SOL    HW2 4773   1.211   2.215   0.125 -0.1991 -1.3856  0.2624
 1578SOL     OW 4774   2.729   3.740   2.788 -0.7782  0.0684  0.2497
 1578SOL    HW1 4775   2.825   3.736   2.792 -0.8040 -1.0975 -0.0396
 1578SOL    HW2 4776   2.710   3.834   2.788  0.4179  0.3498 -0.5973
 1579SOL     OW 4777   2.273   3.480   2.078 -0.3548  0.2499 -0.2904
 1579SOL    HW1 4778   2.301   3.565   2.114 -2.1894  0.4599  0.7812
 1579SOL    HW2 4779   2.224   3.502   1.999 -2.3604  0.4089  0.9232
 1580SOL     OW 4780   2.689   4.219   2.523 -0.4232 -0.0211  0.4882
 1580SOL    HW1 4781   2.720   4.306   2.502  0.8025 -0.2543  1.2493
 1580SOL    HW2 4782   2.748   4.187   2.591 -0.9719 -1.3625  0.3854
 1581SOL     OW 4783   4.119   2.311   0.205 -0.3603 -0.0193  0.6632
 1581SOL    HW1 4784   4.157   2.238   0.157  3.2668  1.1174  1.4495
 1581SOL    HW2 4785   4.035   2.278   0.237  0.5274 -3.3627 -0.0746
 1582SOL     OW 4786   0.195   1.842   0.035 -0.4246  0.4287  0.4247
 1582SOL    HW1 4787   0.170   1.890  -0.044  2.4142  0.6602 -0.4335
 1582SOL    HW2 4788   0.181   1.750   0.012 -1.6339  0.5893  0.4562
 1583SOL     OW 4789   2.996   3.707   2.812 -0.0715  1.0439 -0.1190
 1583SOL    HW1 4790   3.002   3.615   2.838 -0.3938  0.5974 -1.5478
 1583SOL    HW2 4791   3.079   3.745   2.842  0.3763  0.1267 -0.1396
 1584SOL     OW 4792   1.300   1.895   0.196 -0.4622  0.5498  0.4422
 1584SOL    HW1 4793   1.322   1.988   0.184  0.9558  0.2220  0.3975
 1584SOL    HW2 4794   1.374   1.847   0.159 -0.4472 -0.5793  1.8473
 1585SOL     OW 4795   2.549   3.829   2.002  0.2334  0.7755  0.1851
 1585SOL    HW1 4796   2.485   3.876   1.949 -0.7988 -0.6072  0.1598
 1585SOL    HW2 4797   2.586   3.895   2.060 -1.6445  1.5093  0.6131
 1586SOL     OW 4798   2.559   4.194   2.829 -0.0631 -0.2615  0.0435
 1586SOL    HW1 4799   2.467   4.199   2.856 -0.4126 -1.6380 -0.7948
 1586SOL    HW2 4800   2.570   4.268   2.769 -0.5462  0.0918  0.3823
 1587SOL     OW 4801   2.345   3.450   2.695 -0.0161  0.4090 -0.4377
 1587SOL    HW1 4802   2.425   3.408   2.728  0.7349  1.1488 -1.2539
 1587SOL    HW2 4803   2.279   3.382   2.700 -0.1284  0.5555  3.0149
 1588SOL     OW 4804   3.279   4.169   2.363  0.4175  0.3008  0.1381
 1588SOL    HW1 4805   3.332   4.166   2.284  0.8700 -0.5904  0.4646
 1588SOL    HW2 4806   3.211   4.233   2.344  1.3252  1.1011 -0.4638
 1589SOL     OW 4807   2.890   4.086   2.019 -0.1087  0.1517 -0.2390
 1589SOL    HW1 4808   2.970   4.058   2.063  1.0643  2.5390 -0.6969
 1589SOL    HW2 4809   2.891   4.040   1.935  1.4639  1.0681 -0.7591
 1590SOL     OW 4810   4.203   2.057   0.067 -0.5469 -0.9528 -1.0245
 1590SOL    HW1 4811   4.189   1.974   0.023  0.4005 -0.9333 -1.3878
 1590SOL    HW2 4812   4.277   2.097   0.021 -0.5607 -0.2154 -0.4327
 1591SOL     OW 4813   0.799   2.319   0.203  0.4115  0.1395 -0.1075
 1591SOL    HW1 4814   0.785   2.226   0.185  0.0605 -0.5479  3.0880
 1591SOL    HW2 4815   0.735   2.364   0.148 -0.2586 -1.5866 -0.8182
 1592SOL     OW 4816   3.702   2.089   0.018 -0.2392 -0.5656 -0.3232
 1592SOL    HW1 4817   3.614   2.083   0.056  0.3229 -1.7845  0.8657
 1592SOL    HW2 4818   3.705   2.176  -0.021 -1.7433 -0.2374  0.2142
 1593SOL     OW 4819   2.478   4.185   2.096 -0.6501 -0.1543 -0.1314
 1593SOL    HW1 4820   2.533   4.110   2.116 -0.3933 -0.2187 -1.0250
 1593SOL    HW2 4821   2.494   4.247   2.167  0.7771 -0.0647 -0.4941
 1594SOL     OW 4822   1.602   1.960   0.141  0.3547 -0.4059  0.4747
 1594SOL    HW1 4823   1.665   1.914   0.197  1.4448  2.4058  1.7420
 1594SOL    HW2 4824   1.647   1.968   0.056  1.9211  1.7419  1.4171
 1595SOL     OW 4825   3.755   4.189   2.251  0.4642  0.6166 -0.0873
 1595SOL    HW1 4826   3.696   4.204   2.326 -1.2831  1.8305 -1.6159
 1595SOL    HW2 4827   3.757   4.273   2.206  0.1655 -0.5029 -2.3042
 1596SOL     OW 4828   3.674   3.933   2.821 -0.1026  0.1257 -0.4325
 1596SOL    HW1 4829   3.612   3.869   2.786  0.9432 -1.3015  0.2340
 1596SOL    HW2 4830   3.748   3.929   2.762  0.4005 -0.0475  0.2003
 1597SOL     OW 4831   2.385   3.948   2.716 -0.0100 -0.2058 -0.6273
 1597SOL    HW1 4832   2.366   3.862   2.754 -0.5807  0.1069 -0.1770
 1597SOL    HW2 4833   2.351   4.010   2.780  2.3189  0.4176  0.1162
 1598SOL     OW 4834   0.632   1.702   0.024 -0.1437 -0.0473  0.0025
 1598SOL    HW1 4835   0.642   1.616  -0.017  0.5666 -0.0843  0.2416
 1598SOL    HW2 4836   0.637   1.764  -0.048 -1.0466 -0.2179 -0.2201
 1599SOL     OW 4837   2.185   3.838   1.757 -0.3577 -0.5635 -0.0597
 1599SOL    HW1 4838   2.103   3.794   1.735 -1.2907  1.6063 -1.2970
 1599SOL    HW2 4839   2.169   3.874   1.844 -0.6529 -0.3334 -0.2059
 1600SOL     OW 4840   2.001   3.713   2.020 -0.1074 -0.7415  0.4464
 1600SOL    HW1 4841   1.963   3.691   1.934  0.7480 -0.7292  0.0547
 1600SOL    HW2 4842   2.003   3.809   2.021  0.5645 -0.7502  0.1693
 1601SOL     OW 4843   2.890   4.174   2.689  0.0432 -0.5174  0.1216
 1601SOL    HW1 4844   2.966   4.152   2.635  0.1481  1.0488 -0.4347
 1601SOL    HW2 4845   2.907   4.264   2.717 -0.9083 -0.6672  1.2310
 1602SOL     OW 4846   2.531   3.989   2.502  0.1547 -0.3173 -0.6100
 1602SOL    HW1 4847   2.471   3.968   2.574 -1.2102 -0.9789 -1.8918
 1602SOL    HW2 4848   2.575   4.069   2.531 -1.4771  0.3094  0.3132
 1603SOL     OW 4849   3.310   3.625   2.360 -0.0059  0.3620 -0.0556
 1603SOL    HW1 4850   3.300   3.573   2.440 -2.0987  1.0743  0.2062
 1603SOL    HW2 4851   3.331   3.561   2.292  0.8135 -0.3752  0.8486
 1604SOL     OW 4852   3.061   4.337   2.338  0.2946 -0.5604  0.4754
 1604SOL    HW1 4853   2.992   4.347   2.272  0.3785  1.2548  0.6152
 1604SOL    HW2 4854   3.075   4.425   2.371  2.8534 -0.8164  0.2909
 1605SOL     OW 4855   3.239   4.240   2.857  0.2375 -0.2544  0.0796
 1605SOL    HW1 4856   3.252   4.147   2.840 -0.1874 -0.5752  1.3508
 1605SOL    HW2 4857   3.277   4.255   2.944  0.6984  0.8592 -0.2899
 1606SOL     OW 4858   4.228   4.339   0.696  0.3785 -0.3336 -0.2271
 1606SOL    HW1 4859   4.162   4.295   0.643 -0.1956 -1.2419  1.1677
 1606SOL    HW2 4860   4.203   4.431   0.695 -0.1442 -0.4786 -0.7880
 1607SOL     OW 4861   3.149   4.776   1.110  0.0328  0.7236 -0.2801
 1607SOL    HW1 4862   3.063   4.811   1.131 -0.2214 -0.2038  0.3135
 1607SOL    HW2 4863   3.150   4.768   1.015 -0.8637 -0.0333 -0.2426
 1608SOL     OW 4864   4.410   5.048   1.060 -0.6418  0.1136  0.1505
 1608SOL    HW1 4865   4.406   5.123   1.119  1.0752  0.5486 -0.2367
 1608SOL    HW2 4866   4.468   4.986   1.104  0.8044  0.5140 -1.1070
 1609SOL     OW 4867   3.647   1.796   0.842 -0.0515 -0.1571 -0.0574
 1609SOL    HW1 4868   3.614   1.712   0.873 -1.0676  0.5321  0.7847
 1609SOL    HW2 4869   3.571   1.839   0.803  0.2651  0.7056  0.2494
 1610SOL     OW 4870   4.239   4.986   1.813 -0.0744  0.2153 -0.5446
 1610SOL    HW1 4871   4.317   4.938   1.841 -1.2072 -1.2881  0.1695
 1610SOL    HW2 4872   4.232   5.058   1.875  0.6774  0.3060 -0.5529
 1611SOL     OW 4873   4.258   1.562   0.718 -0.1206  0.2591 -0.0838
 1611SOL    HW1 4874   4.273   1.481   0.766  0.0485  0.9075  1.0111
 1611SOL    HW2 4875   4.187   1.542   0.657  0.8163 -1.0766 -0.8043
 1612SOL     OW 4876   4.090   1.260   0.665 -0.2405  0.5045 -0.4444
 1612SOL    HW1 4877   4.038   1.236   0.742  1.2835  1.3751  0.9052
 1612SOL    HW2 4878   4.025   1.266   0.594 -2.0434  1.7150  1.1810
 1613SOL     OW 4879   3.913   1.220   0.856 -0.1390 -0.9002  0.0821
 1613SOL    HW1 4880   3.918   1.156   0.927  0.9306 -2.0506 -0.9853
 1613SOL    HW2 4881   3.909   1.305   0.900 -0.0838 -1.6216  1.5193
 1614SOL     OW 4882   3.392   0.696   0.722  0.0915 -0.0167  0.5362
 1614SOL    HW1 4883   3.449   0.623   0.699  1.5350  1.0929  0.4566
 1614SOL    HW2 4884   3.336   0.708   0.646  2.4769  1.3987 -1.1239
 1615SOL     OW 4885   4.334   0.947   1.259 -0.3591 -0.0467  0.2636
 1615SOL    HW1 4886   4.406   0.957   1.321 -1.2985  0.9718  1.2344
 1615SOL    HW2 4887   4.285   1.029   1.265 -1.4506 -0.6026 -0.5740
 1616SOL     OW 4888   3.918   1.046   1.064 -0.7225 -0.0185  0.4698
 1616SOL    HW1 4889   3.890   1.106   1.133 -1.6564  0.8892 -0.6466
 1616SOL    HW2 4890   3.947   0.967   1.110 -0.4324  0.9037  1.9261
 1617SOL     OW 4891   3.860   4.341   1.852 -0.5309 -0.0349 -0.3881
 1617SOL    HW1 4892   3.840   4.248   1.849  1.7796 -0.5828 -0.0932
 1617SOL    HW2 4893   3.908   4.354   1.934  1.0492  0.9696 -1.4081
 1618SOL     OW 4894   3.703   0.900   1.048  0.2536  0.8160  0.3374
 1618SOL    HW1 4895   3.778   0.956   1.027 -0.9973  2.0067 -1.2899
 1618SOL    HW2 4896   3.627   0.955   1.028 -1.0367 -0.9573  0.1763
 1619SOL     OW 4897   3.750   1.766   1.317  0.4614  0.2171  0.0678
 1619SOL    HW1 4898   3.797   1.828   1.372 -1.2702  0.3110  1.5412
 1619SOL    HW2 4899   3.747   1.807   1.231 -0.8802  2.3711  1.0631
 1620SOL     OW 4900   4.381   0.221   0.153 -0.6016  0.2919  0.1060
 1620SOL    HW1 4901   4.429   0.296   0.118 -1.9439  0.0198 -2.5505
 1620SOL    HW2 4902   4.420   0.145   0.110 -0.4885 -0.3969  1.3637
 1621SOL     OW 4903   4.005   1.777   1.055 -0.0007 -0.1296  0.1752
 1621SOL    HW1 4904   4.064   1.786   0.980 -0.7025  1.5529 -0.2174
 1621SOL    HW2 4905   4.061   1.786   1.131  0.1885  2.3398 -0.1980
 1622SOL     OW 4906   4.098   1.486   1.495  0.0784  0.0948 -0.5852
 1622SOL    HW1 4907   4.110   1.394   1.520 -0.5397 -0.1784 -1.2458
 1622SOL    HW2 4908   4.004   1.494   1.477  0.1212  0.8672 -0.5061
 1623SOL     OW 4909   4.031   4.687   1.499  0.0862 -0.7749  0.4420
 1623SOL    HW1 4910   4.089   4.762   1.511  0.6098 -1.4561  2.4895
 1623SOL    HW2 4911   4.090   4.612   1.488 -0.4208 -1.1020 -0.1045
 1624SOL     OW 4912   4.372   1.912   1.175  0.2068  0.1961 -0.1935
 1624SOL    HW1 4913   4.370   1.826   1.218 -0.0861 -0.5593 -1.6378
 1624SOL    HW2 4914   4.344   1.894   1.085 -2.1208  2.1847  0.0476
 1625SOL     OW 4915   3.856   0.829   0.498 -0.7632  0.2014 -0.1717
 1625SOL    HW1 4916   3.834   0.822   0.591  1.7167 -0.6971  0.4156
 1625SOL    HW2 4917   3.901   0.913   0.491  1.3109 -0.8474  0.0045
 1626SOL     OW 4918   4.289   4.286   0.245  0.2167  0.7497 -0.2896
 1626SOL    HW1 4919   4.348   4.281   0.170 -2.8426  0.3551 -2.8946
 1626SOL    HW2 4920   4.310   4.370   0.287  2.6738  0.5221 -0.9225
 1627SOL     OW 4921   4.203   4.579   0.417  0.0558  0.6361  0.3953
 1627SOL    HW1 4922   4.236   4.612   0.501 -0.4268  0.3015  0.7234
 1627SOL    HW2 4923   4.274   4.596   0.355  0.9955 -0.3877  1.1443
 1628SOL     OW 4924   0.481   1.642   0.606  0.3235 -0.5067 -0.1041
 1628SOL    HW1 4925   0.475   1.720   0.662  2.3819 -1.5037  1.6232
 1628SOL    HW2 4926   0.447   1.571   0.660  1.4892 -1.3432 -0.4550
 1629SOL     OW 4927   3.970   4.945   1.348  0.2524 -0.0615 -0.4146
 1629SOL    HW1 4928   4.047   4.937   1.404  0.7879  0.7085 -1.0221
 1629SOL    HW2 4929   3.995   5.008   1.281 -1.2164  0.8821 -0.1254
 1630SOL     OW 4930   4.424   4.638   0.890  0.4528 -1.1554 -0.1344
 1630SOL    HW1 4931   4.360   4.701   0.855  1.0917 -0.9957 -1.0568
 1630SOL    HW2 4932   4.509   4.675   0.868  0.8471 -2.1133 -0.3049
 1631SOL     OW 4933   4.401   5.012   1.398  0.0324  0.1392 -0.3201
 1631SOL    HW1 4934   4.377   5.085   1.455 -0.1861 -0.0293 -0.1940
 1631SOL    HW2 4935   4.472   5.046   1.344 -0.0734  0.4484 -0.2694
 1632SOL     OW 4936   3.924   1.502   0.974 -0.1619  0.1374 -0.1382
 1632SOL    HW1 4937   3.830   1.490   0.991 -0.2803 -1.0682 -1.4791
 1632SOL    HW2 4938   3.942   1.591   1.006 -1.4540 -0.0817  1.3433
 1633SOL     OW 4939   4.410   1.297   0.750 -0.4542 -0.1315  0.1434
 1633SOL    HW1 4940   4.391   1.204   0.744  0.6283 -0.3559  0.0006
 1633SOL    HW2 4941   4.407   1.329   0.660  0.0886 -0.2210  0.0922
 1634SOL     OW 4942   4.374   4.668   1.178 -0.0135  0.3911  0.2253
 1634SOL    HW1 4943   4.414   4.753   1.161  0.7939 -0.1587 -0.7320
 1634SOL    HW2 4944   4.386   4.619   1.097  0.0244 -0.8305  0.9476
 1635SOL     OW 4945   4.642   1.835   1.228 -0.3637  0.2696  0.0572
 1635SOL    HW1 4946   4.630   1.761   1.286  0.8992  2.1397  2.9147
 1635SOL    HW2 4947   4.553   1.864   1.207 -0.9056  0.2250  2.0964
 1636SOL     OW 4948   4.276   1.229   1.245 -0.4015  0.1524 -0.2906
 1636SOL    HW1 4949   4.211   1.272   1.189 -0.6675 -0.6683 -0.6378
 1636SOL    HW2 4950   4.359   1.244   1.201 -0.1901  2.0739  0.6843
 1637SOL     OW 4951   4.394   4.093   2.051 -0.4216 -0.1249  0.4897
 1637SOL    HW1 4952   4.391   4.160   2.119  1.6718  0.4857  0.0660
 1637SOL    HW2 4953   4.346   4.131   1.978 -1.1343 -0.0249  1.0066
 1638SOL     OW 4954   4.575   4.862   1.170  0.0331  0.0785  0.0566
 1638SOL    HW1 4955   4.622   4.878   1.252  0.0967  0.2664 -0.0162
 1638SOL    HW2 4956   4.643   4.830   1.110  0.1608  0.7819 -0.1845
 1639SOL     OW 4957   4.344   4.530   1.397 -0.4957 -0.3784 -0.4489
 1639SOL    HW1 4958   4.371   4.597   1.460  0.5353 -0.5646 -0.6856
 1639SOL    HW2 4959   4.328   4.578   1.316  0.0263 -0.3896 -0.5589
 1640SOL     OW 4960   3.787   1.228   1.232 -0.4037  0.0699  0.6222
 1640SOL    HW1 4961   3.696   1.204   1.250 -0.2214  0.2365  1.8524
 1640SOL    HW2 4962   3.782   1.321   1.208 -0.5012  0.2456  1.2986
 1641SOL     OW 4963   3.562   0.493   0.688 -1.1588 -0.4984  0.0691
 1641SOL    HW1 4964   3.576   0.450   0.772  0.7386 -2.2091 -1.0412
 1641SOL    HW2 4965   3.516   0.428   0.635 -0.8374 -0.0799 -0.7397
 1642SOL     OW 4966   4.251   1.263   1.510  0.4213  0.1625 -0.5312
 1642SOL    HW1 4967   4.260   1.250   1.416 -0.1406  0.9371 -0.7033
 1642SOL    HW2 4968   4.337   1.297   1.537  0.2044  1.1324 -0.9961
 1643SOL     OW 4969   4.094   5.171   1.161  0.2249  0.3166 -0.2329
 1643SOL    HW1 4970   4.177   5.202   1.198 -0.1570 -0.3792  1.2781
 1643SOL    HW2 4971   4.116   5.145   1.071  1.7050 -0.0764  0.2178
 1644SOL     OW 4972   4.136   4.794   1.112  0.2430 -0.3521 -0.1175
 1644SOL    HW1 4973   4.071   4.737   1.151  1.3147 -1.7193 -0.2649
 1644SOL    HW2 4974   4.220   4.760   1.143  0.9020  1.5185  0.2740
 1645SOL     OW 4975   3.430   1.797   0.597  0.7040 -0.6204 -0.5191
 1645SOL    HW1 4976   3.351   1.793   0.542  1.3651 -1.1447 -1.4552
 1645SOL    HW2 4977   3.454   1.705   0.611 -1.1331 -0.7390  3.2179
 1646SOL     OW 4978   3.923   4.592   1.217  0.1099 -0.1945  0.2861
 1646SOL    HW1 4979   3.847   4.543   1.186  1.1134 -1.0516 -0.9439
 1646SOL    HW2 4980   3.972   4.529   1.270  0.1442  0.2363  0.7638
 1647SOL     OW 4981   3.829   5.181   1.634  0.3687 -0.2007 -0.5812
 1647SOL    HW1 4982   3.828   5.186   1.730  2.3862 -0.4951 -0.5044
 1647SOL    HW2 4983   3.877   5.259   1.607 -0.2666 -0.0770 -1.3698
 1648SOL     OW 4984   4.386   4.755   0.574 -0.4991  0.1041 -0.0379
 1648SOL    HW1 4985   4.380   4.846   0.604  1.1830 -0.0357  0.8401
 1648SOL    HW2 4986   4.457   4.755   0.510  1.5821 -1.0411  2.1125
 1649SOL     OW 4987   3.716   1.546   1.772  0.1131  0.3841 -0.4779
 1649SOL    HW1 4988   3.655   1.536   1.845  1.3071 -0.3085  0.4657
 1649SOL    HW2 4989   3.796   1.580   1.813  1.4551 -1.8300 -1.1233
 1650SOL     OW 4990   3.936   0.319   0.368 -0.0565 -0.4701 -0.3867
 1650SOL    HW1 4991   4.020   0.290   0.405  0.5510 -2.4203 -3.0472
 1650SOL    HW2 4992   3.960   0.381   0.299 -0.7456 -1.3659 -1.4533
 1651SOL     OW 4993   3.580   1.251   1.526  0.2532  0.3153  0.9457
 1651SOL    HW1 4994   3.575   1.163   1.489 -1.7378  0.2088  1.3407
 1651SOL    HW2 4995   3.619   1.304   1.456  0.5363 -0.6780  0.3255
 1652SOL     OW 4996   3.488   1.137   1.181 -0.3881 -0.1296  0.3149
 1652SOL    HW1 4997   3.446   1.191   1.114  1.1332 -0.1906 -0.7273
 1652SOL    HW2 4998   3.449   1.051   1.170  0.0508 -0.2044 -0.6917
 1653SOL     OW 4999   3.821   1.858   1.872 -0.0436  0.4939 -0.5838
 1653SOL    HW1 5000   3.736   1.867   1.829  1.0092  1.0884 -2.6604
 1653SOL    HW2 5001   3.801   1.867   1.965 -2.0229  2.5042 -1.1065
 1654SOL     OW 5002   3.820   4.495   0.849  0.6774 -0.2015  0.0659
 1654SOL    HW1 5003   3.762   4.565   0.879 -0.7735 -0.4001 -2.0606
 1654SOL    HW2 5004   3.823   4.433   0.922 -0.5115  0.5910  0.8145
 1655SOL     OW 5005   4.177   1.395   0.984  0.1024 -0.0147  0.1800
 1655SOL    HW1 5006   4.086   1.423   0.986 -0.2065 -0.8747 -0.6873
 1655SOL    HW2 5007   4.184   1.343   0.904  1.4925  0.4797 -0.0525
 1656SOL     OW 5008   4.500   1.924   0.279  0.5958  0.9722 -0.2231
 1656SOL    HW1 5009   4.554   1.867   0.334 -0.9693 -0.2932  0.1163
 1656SOL    HW2 5010   4.521   1.898   0.190  1.5512  1.4745 -0.1468
 1657SOL     OW 5011   4.042   5.426   1.638 -0.1763 -0.1324 -0.3529
 1657SOL    HW1 5012   3.975   5.489   1.610  0.4558  0.4429 -0.5805
 1657SOL    HW2 5013   4.122   5.454   1.594  0.3206 -0.5669  0.2548
 1658SOL     OW 5014   3.800   1.533   1.491  0.4079  0.1745  0.2124
 1658SOL    HW1 5015   3.763   1.611   1.448  0.3928  0.7534  1.2382
 1658SOL    HW2 5016   3.752   1.527   1.574 -0.1937 -1.4380 -0.2196
 1659SOL     OW 5017   4.468   1.432   0.225  0.1191 -0.5746 -0.2701
 1659SOL    HW1 5018   4.431   1.376   0.158  1.8179  0.1255 -1.8862
 1659SOL    HW2 5019   4.556   1.454   0.193 -0.0116  2.0052  0.8371
 1660SOL     OW 5020   3.984   5.648   1.932 -0.5944  0.6560 -0.4692
 1660SOL    HW1 5021   3.969   5.742   1.943 -2.1304  0.6386 -2.0358
 1660SOL    HW2 5022   3.986   5.635   1.837 -3.1673 -1.2727 -0.3582
 1661SOL     OW 5023   3.712   1.084   0.702  0.0600  0.0641  0.1136
 1661SOL    HW1 5024   3.759   1.128   0.772 -0.9098  1.6626 -0.1701
 1661SOL    HW2 5025   3.752   1.118   0.622 -1.0764  0.9220 -0.1167
 1662SOL     OW 5026   4.258   1.660   1.621 -0.3308 -0.8404 -0.1948
 1662SOL    HW1 5027   4.222   1.740   1.582  0.1048 -0.8264 -0.5735
 1662SOL    HW2 5028   4.196   1.592   1.596 -1.3559 -0.4397  1.1431
 1663SOL     OW 5029   3.860   0.487   0.587  0.3037 -0.0912  0.0097
 1663SOL    HW1 5030   3.767   0.495   0.607  0.5390  0.1776  1.0165
 1663SOL    HW2 5031   3.863   0.425   0.514 -0.7154  0.5014 -0.5642
 1664SOL     OW 5032   4.172   4.928   1.515 -0.5311  0.3334  0.6803
 1664SOL    HW1 5033   4.187   4.964   1.603 -0.6961  0.1158  0.7990
 1664SOL    HW2 5034   4.253   4.946   1.468  0.6301 -1.9009  1.6791
 1665SOL     OW 5035   3.588   0.840   0.441 -0.1445  0.2568 -0.2733
 1665SOL    HW1 5036   3.662   0.870   0.494 -0.2413  3.0178 -1.5037
 1665SOL    HW2 5037   3.616   0.755   0.407  0.6504 -0.7653  2.6232
 1666SOL     OW 5038   4.441   4.753   1.905  0.7057 -0.2542  0.0645
 1666SOL    HW1 5039   4.411   4.810   1.975  0.4508 -1.1339  0.6901
 1666SOL    HW2 5040   4.481   4.812   1.841 -3.6521  1.2871 -1.6532
 1667SOL     OW 5041   3.654   4.227   2.508  0.6466  0.6254 -0.5995
 1667SOL    HW1 5042   3.675   4.149   2.560  0.9851  0.9096 -0.3087
 1667SOL    HW2 5043   3.575   4.263   2.548  0.8160  0.7537 -0.3780
 1668SOL     OW 5044   3.514   4.527   2.495 -0.1176  0.2388 -0.3825
 1668SOL    HW1 5045   3.442   4.589   2.480 -1.4709 -1.1891 -0.0673
 1668SOL    HW2 5046   3.480   4.466   2.560  1.9844  0.4148  0.9894
 1669SOL     OW 5047   4.570   5.419   2.513  0.1161 -0.1785  0.4491
 1669SOL    HW1 5048   4.486   5.461   2.532 -0.0247 -0.3036  0.1188
 1669SOL    HW2 5049   4.556   5.327   2.538 -1.3681 -1.2679 -3.7040
 1670SOL     OW 5050   3.885   5.738   2.637 -0.0712 -0.0406  0.1829
 1670SOL    HW1 5051   3.848   5.682   2.705 -0.0248 -0.8498 -0.4379
 1670SOL    HW2 5052   3.861   5.695   2.555  1.9429 -0.4272 -0.2568
 1671SOL     OW 5053   3.770   1.993   2.370 -0.3004  0.2704  0.6974
 1671SOL    HW1 5054   3.755   2.013   2.463  0.7031  0.5149  0.8142
 1671SOL    HW2 5055   3.841   2.050   2.344 -0.4348  0.0514 -0.1808
 1672SOL     OW 5056   3.870   1.580   1.993  0.3059  0.6491  0.1847
 1672SOL    HW1 5057   3.917   1.651   2.035  1.7857 -0.5980  0.7237
 1672SOL    HW2 5058   3.788   1.574   2.041  1.3893  0.1343  2.0540
 1673SOL     OW 5059   3.810   5.299   2.439  0.1147 -0.4299  0.5432
 1673SOL    HW1 5060   3.779   5.336   2.356 -0.2619 -0.6069  0.6020
 1673SOL    HW2 5061   3.740   5.319   2.502  0.8315  0.5714  1.0524
 1674SOL     OW 5062   3.778   4.762   2.497  0.0433  0.1492 -0.3450
 1674SOL    HW1 5063   3.770   4.667   2.485 -0.4918  0.0823  0.4708
 1674SOL    HW2 5064   3.867   4.774   2.528  0.2943 -0.0258 -0.9773
 1675SOL     OW 5065   3.772   5.597   2.119  0.3767 -0.1324 -0.2689
 1675SOL    HW1 5066   3.819   5.591   2.035 -0.5903 -0.5272 -0.7967
 1675SOL    HW2 5067   3.707   5.665   2.104  0.8790  0.5332  0.5171
 1676SOL     OW 5068   3.817   4.991   1.959  0.1404  0.4729 -0.6025
 1676SOL    HW1 5069   3.875   4.916   1.949 -1.8586 -1.2823  0.2025
 1676SOL    HW2 5070   3.854   5.040   2.033  0.4269 -0.8171  0.1578
 1677SOL     OW 5071   3.872   5.117   2.221  0.3874  0.1481 -0.3762
 1677SOL    HW1 5072   3.847   5.027   2.241  3.7411 -1.0738 -1.0292
 1677SOL    HW2 5073   3.850   5.166   2.300 -1.1052 -1.2910  0.1718
 1678SOL     OW 5074   4.689   4.942   2.019 -0.4993  0.3045 -0.4204
 1678SOL    HW1 5075   4.714   4.965   2.109  0.9051  1.0588 -0.9819
 1678SOL    HW2 5076   4.610   4.993   2.002  0.1162  1.3832 -0.1391
 1679SOL     OW 5077   3.945   5.999   2.872 -0.2172 -0.1051  0.2120
 1679SOL    HW1 5078   3.952   6.094   2.868 -0.7604 -0.0995 -1.2741
 1679SOL    HW2 5079   3.875   5.978   2.810 -0.8120 -1.4028  1.2622
 1680SOL     OW 5080   3.879   5.345   1.869  0.3698 -0.4158  0.6617
 1680SOL    HW1 5081   3.823   5.422   1.857 -0.0063 -0.5810  1.2910
 1680SOL    HW2 5082   3.944   5.352   1.799  1.0508  1.0930  1.3903
 1681SOL     OW 5083   3.994   4.821   1.815  0.3196 -0.0734  0.4708
 1681SOL    HW1 5084   4.080   4.863   1.826  0.1724  0.3671 -0.0049
 1681SOL    HW2 5085   4.011   4.728   1.829  0.7632  0.0788  0.9874
 1682SOL     OW 5086   4.898   4.681   2.386 -0.2483 -0.2580 -0.0990
 1682SOL    HW1 5087   4.826   4.629   2.421  0.8060 -2.0582 -0.4986
 1682SOL    HW2 5088   4.934   4.629   2.315  0.3146  1.4469 -1.1380
 1683SOL     OW 5089   4.333   4.542   2.619 -0.0126 -0.2639  0.2609
 1683SOL    HW1 5090   4.343   4.452   2.587  0.0386  0.0851 -0.7464
 1683SOL    HW2 5091   4.414   4.559   2.667  0.2641 -0.5347 -0.1014
 1684SOL     OW 5092   4.488   4.560   2.156  0.3812  0.5443  0.2218
 1684SOL    HW1 5093   4.516   4.588   2.068  0.2391  0.5215  0.1689
 1684SOL    HW2 5094   4.569   4.536   2.200  0.3303 -1.0130 -0.4454
 1685SOL     OW 5095   4.100   5.454   2.391 -0.0231 -0.3657  0.2722
 1685SOL    HW1 5096   4.037   5.523   2.411  0.8984  1.0167 -1.3587
 1685SOL    HW2 5097   4.064   5.411   2.313 -0.0310 -1.0132  0.6274
 1686SOL     OW 5098   3.898   5.313   2.874 -0.1336  0.4846  0.3340
 1686SOL    HW1 5099   3.829   5.262   2.915 -0.6613  0.7275 -0.2425
 1686SOL    HW2 5100   3.924   5.262   2.797  0.1437  0.5219  0.4012
 1687SOL     OW 5101   3.531   5.788   2.642  0.1981  0.0762 -0.2670
 1687SOL    HW1 5102   3.538   5.713   2.582  0.0510  1.0311 -1.5197
 1687SOL    HW2 5103   3.541   5.749   2.729 -1.4973 -1.6340 -0.7653
 1688SOL     OW 5104   4.017   5.216   2.644 -0.5970  0.4805  0.8891
 1688SOL    HW1 5105   4.095   5.266   2.619  0.0444  0.3565  2.5331
 1688SOL    HW2 5106   3.954   5.235   2.575  0.9290  0.4568 -0.5839
 1689SOL     OW 5107   4.118   5.247   3.009 -0.4507  0.1334  0.0609
 1689SOL    HW1 5108   4.072   5.280   2.932  2.1971  0.2298 -1.6180
 1689SOL    HW2 5109   4.067   5.171   3.037 -1.7055  0.3293 -1.5346
 1690SOL     OW 5110   1.663   3.743   0.363  0.2588  0.1182  0.0734
 1690SOL    HW1 5111   1.733   3.678   0.355  0.3411 -0.0079  1.5660
 1690SOL    HW2 5112   1.614   3.736   0.281  1.8130  0.0148 -0.8810
 1691SOL     OW 5113   4.282   5.465   2.580  0.2497 -0.2497  0.0895
 1691SOL    HW1 5114   4.225   5.428   2.513  1.1591  0.8429 -1.3531
 1691SOL    HW2 5115   4.246   5.552   2.597 -0.1162 -0.5986  1.2469
 1692SOL     OW 5116   4.138   4.717   2.734  0.3413 -0.3582  0.1221
 1692SOL    HW1 5117   4.192   4.794   2.751 -1.6072  1.0019  0.4450
 1692SOL    HW2 5118   4.194   4.661   2.680  2.2360  0.7185  0.8486
 1693SOL     OW 5119   3.627   5.285   2.641  0.3400 -0.4017 -0.0067
 1693SOL    HW1 5120   3.634   5.306   2.735  1.5770 -0.2889 -0.1095
 1693SOL    HW2 5121   3.666   5.198   2.633 -1.8991 -1.4769 -0.0807
 1694SOL     OW 5122   3.975   4.912   2.634  0.0275 -0.2345  0.4784
 1694SOL    HW1 5123   4.028   4.844   2.675  1.4695  0.0190 -0.8810
 1694SOL    HW2 5124   4.035   4.987   2.627 -0.5383  0.1075 -0.9518
 1695SOL     OW 5125   4.020   5.357   2.149 -0.5811  0.3038 -0.3001
 1695SOL    HW1 5126   3.952   5.295   2.173 -0.7435  1.0976  1.3803
 1695SOL    HW2 5127   3.990   5.394   2.066 -1.6123 -0.1998 -0.1685
 1696SOL     OW 5128   3.748   5.978   2.647  0.3696  0.4757  0.1721
 1696SOL    HW1 5129   3.679   5.918   2.675 -0.2632  1.3032  0.4349
 1696SOL    HW2 5130   3.814   5.921   2.606 -0.8278 -0.2676 -0.8198
 1697SOL     OW 5131   1.850   2.989   0.419  0.0440 -0.0267 -0.4908
 1697SOL    HW1 5132   1.922   2.936   0.384  0.1799 -0.1096 -0.0954
 1697SOL    HW2 5133   1.882   3.019   0.504 -0.4027 -0.0967 -0.2953
 1698SOL     OW 5134   4.391   4.965   2.066 -0.4148  0.2131 -0.5228
 1698SOL    HW1 5135   4.430   4.986   2.151 -1.2923 -1.9872  0.4911
 1698SOL    HW2 5136   4.330   5.037   2.050  0.2477  1.0103  0.3771
 1699SOL     OW 5137   4.214   5.182   2.010  0.2007 -0.1587  0.0730
 1699SOL    HW1 5138   4.125   5.209   2.030  0.7910  0.0212  2.8223
 1699SOL    HW2 5139   4.268   5.225   2.076  1.9659 -2.5391  0.3044
 1700SOL     OW 5140   3.775   4.468   2.529 -0.3271  0.1555  0.0287
 1700SOL    HW1 5141   3.685   4.475   2.498  0.1056 -1.0529 -1.6849
 1700SOL    HW2 5142   3.786   4.374   2.548  0.4956  0.3365  0.4865
 1701SOL     OW 5143   4.256   5.555   2.010  0.7130  0.5651 -0.1866
 1701SOL    HW1 5144   4.274   5.557   2.104  0.1526  0.0425 -0.0692
 1701SOL    HW2 5145   4.161   5.557   2.003  0.7447  0.3781 -0.7370
 1702SOL     OW 5146   3.909   1.826   2.142 -0.1030 -0.3939  0.1830
 1702SOL    HW1 5147   3.860   1.839   2.223 -0.3522  1.0823 -0.1694
 1702SOL    HW2 5148   3.999   1.807   2.171  0.0850  1.3018  0.8189
 1703SOL     OW 5149   1.750   2.729   0.420 -0.5169 -0.3797 -0.0257
 1703SOL    HW1 5150   1.833   2.769   0.394 -0.3983 -0.9633 -0.5755
 1703SOL    HW2 5151   1.689   2.750   0.348 -0.7119 -0.3715  0.1398
 1704SOL     OW 5152   3.678   4.690   1.868  0.3617 -0.1438 -0.0681
 1704SOL    HW1 5153   3.589   4.663   1.844  0.2713  1.4040 -1.6829
 1704SOL    HW2 5154   3.687   4.778   1.832  1.8237  0.6058  1.9410
 1705SOL     OW 5155   3.618   4.325   1.985 -0.3182  0.5547 -0.3273
 1705SOL    HW1 5156   3.641   4.413   2.015  1.8555 -0.0164 -0.1380
 1705SOL    HW2 5157   3.669   4.313   1.905 -0.8260 -0.4155 -0.5148
 1706SOL     OW 5158   3.804   5.631   2.388 -0.4155 -0.0364  0.1137
 1706SOL    HW1 5159   3.808   5.628   2.292  0.7148  0.4892  0.1309
 1706SOL    HW2 5160   3.716   5.601   2.409 -0.1192 -1.8510 -1.0155
 1707SOL     OW 5161   4.335   4.728   2.340 -0.1803  0.5078 -0.2724
 1707SOL    HW1 5162   4.313   4.667   2.410 -0.5750  0.7190 -0.2140
 1707SOL    HW2 5163   4.384   4.675   2.277 -0.5673  0.1204 -0.2469
 1708SOL     OW 5164   3.678   5.160   2.915  0.2979 -0.2514  0.0016
 1708SOL    HW1 5165   3.621   5.088   2.889  0.5257  0.3087 -2.2328
 1708SOL    HW2 5166   3.618   5.234   2.929  0.3911  0.3198 -2.2827
 1709SOL     OW 5167   3.657   5.208   1.940 -0.3988 -0.6808 -0.2231
 1709SOL    HW1 5168   3.704   5.275   1.891 -0.6120  0.4693  1.1048
 1709SOL    HW2 5169   3.723   5.139   1.955  1.1370  1.1600  2.1371
 1710SOL     OW 5170   3.423   1.876   1.094 -0.2315 -0.8550 -0.2448
 1710SOL    HW1 5171   3.466   1.937   1.154  1.2112 -0.8726 -1.2162
 1710SOL    HW2 5172   3.447   1.907   1.007 -1.5432 -1.3628 -0.8090
 1711SOL     OW 5173   3.482   2.241   0.860 -0.1519  0.7111  0.2521
 1711SOL    HW1 5174   3.556   2.291   0.827  0.7570 -0.5298  0.3494
 1711SOL    HW2 5175   3.410   2.264   0.802  0.3637  1.7315 -0.0164
 1712SOL     OW 5176   4.118   2.499   0.774  0.0569 -0.1182  0.0971
 1712SOL    HW1 5177   4.204   2.461   0.793  0.5775  0.8589 -0.2672
 1712SOL    HW2 5178   4.057   2.444   0.823  0.8870 -0.7966  0.4038
 1713SOL     OW 5179   4.215   3.359   0.956  0.0032  0.1854 -0.0204
 1713SOL    HW1 5180   4.207   3.264   0.949 -0.2770  0.2237 -0.2399
 1713SOL    HW2 5181   4.153   3.382   1.025 -0.7536  0.3276 -0.7348
 1714SOL     OW 5182   4.340   2.142   1.362  0.6675  0.2208 -0.4309
 1714SOL    HW1 5183   4.346   2.140   1.458  1.0553  0.2908 -0.4525
 1714SOL    HW2 5184   4.328   2.051   1.337  0.6332  0.1938 -0.3189
 1715SOL     OW 5185   3.561   3.390   0.800 -0.0931  0.8245  0.7211
 1715SOL    HW1 5186   3.581   3.470   0.751 -0.3072 -1.4106 -3.4423
 1715SOL    HW2 5187   3.647   3.348   0.814 -0.2137  0.4166  0.2628
 1716SOL     OW 5188   3.774   3.245   0.517  0.1224  0.5035 -0.0574
 1716SOL    HW1 5189   3.860   3.207   0.537  0.2017  0.9177  0.3955
 1716SOL    HW2 5190   3.716   3.209   0.585 -0.2414 -0.3844 -0.8059
 1717SOL     OW 5191   3.886   2.999   0.898  0.4377  0.3233 -0.3229
 1717SOL    HW1 5192   3.903   2.958   0.813  2.6961 -0.0394  0.2258
 1717SOL    HW2 5193   3.837   2.933   0.947 -0.4930  0.3591 -1.1681
 1718SOL     OW 5194   3.748   2.317   0.708  0.1961  0.1348  0.5612
 1718SOL    HW1 5195   3.735   2.412   0.704 -0.0808  0.1188  1.0072
 1718SOL    HW2 5196   3.798   2.302   0.788 -0.2064 -0.1380  0.7671
 1719SOL     OW 5197   4.073   2.482   1.516 -0.1845  0.3835 -0.2524
 1719SOL    HW1 5198   4.164   2.508   1.526 -0.0905  0.1526 -0.4829
 1719SOL    HW2 5199   4.039   2.479   1.606  0.5037 -1.1487 -0.0098
 1720SOL     OW 5200   4.077   2.926   1.333 -0.0127  0.1612 -0.1050
 1720SOL    HW1 5201   4.066   2.832   1.325 -0.3876  0.3663 -3.1648
 1720SOL    HW2 5202   3.997   2.964   1.296 -0.5018  1.7403  2.3281
 1721SOL     OW 5203   4.014   1.859   1.674  0.2156  0.1885 -0.5283
 1721SOL    HW1 5204   3.940   1.854   1.734  0.6768 -0.1567  0.0234
 1721SOL    HW2 5205   4.091   1.850   1.730  0.6810  0.6322 -1.0822
 1722SOL     OW 5206   3.627   2.792   0.738  0.2314  0.0894  0.5308
 1722SOL    HW1 5207   3.649   2.710   0.782  0.6386 -0.1358 -0.0826
 1722SOL    HW2 5208   3.604   2.766   0.649  1.2523  0.7203  0.0651
 1723SOL     OW 5209   3.560   3.623   1.993 -0.9458  0.2609 -0.2919
 1723SOL    HW1 5210   3.646   3.654   1.964 -0.3724 -0.4115  0.6527
 1723SOL    HW2 5211   3.513   3.603   1.911  0.5319 -1.3270 -0.8067
 1724SOL     OW 5212   2.296   4.528   2.919  0.0877 -0.3718 -0.2511
 1724SOL    HW1 5213   2.290   4.433   2.911  1.3894 -0.3892 -1.3528
 1724SOL    HW2 5214   2.388   4.545   2.939 -0.3422  0.6097  1.0124
 1725SOL     OW 5215   3.957   1.804   0.687 -0.6546 -0.1040  0.3312
 1725SOL    HW1 5216   3.976   1.850   0.769  1.4613  1.3144 -0.8495
 1725SOL    HW2 5217   3.877   1.844   0.654 -0.8695  0.1314  1.1306
 1726SOL     OW 5218   4.155   3.777   1.501 -0.1147  0.1216  0.1141
 1726SOL    HW1 5219   4.172   3.856   1.450  2.4784 -1.0638 -1.0584
 1726SOL    HW2 5220   4.196   3.795   1.586  0.0904  0.2049 -0.0002
 1727SOL     OW 5221   4.266   3.171   1.678  0.2044  0.1899  0.4268
 1727SOL    HW1 5222   4.195   3.125   1.634  0.7333 -0.1355 -0.1063
 1727SOL    HW2 5223   4.238   3.178   1.769 -0.2529 -0.4570  0.3410
 1728SOL     OW 5224   3.716   1.502   1.164  0.5613 -0.3508  0.4491
 1728SOL    HW1 5225   3.649   1.561   1.131  1.0254 -0.2295 -0.3185
 1728SOL    HW2 5226   3.760   1.552   1.233  1.8041  0.7460 -1.0630
 1729SOL     OW 5227   3.884   3.700   1.604  0.0490  0.4837  0.1752
 1729SOL    HW1 5228   3.845   3.786   1.617 -1.1239  0.0928 -0.6244
 1729SOL    HW2 5229   3.977   3.718   1.591  0.0454  1.4925  1.4072
 1730SOL     OW 5230   4.103   2.667   0.549  0.3075 -0.2594  0.2533
 1730SOL    HW1 5231   4.129   2.600   0.487  0.0115  0.0927 -0.2661
 1730SOL    HW2 5232   4.119   2.629   0.635  0.5862 -0.8082 -0.0391
 1731SOL     OW 5233   0.357   2.217   0.046  0.2423  0.0334 -0.2045
 1731SOL    HW1 5234   0.325   2.165  -0.028 -0.2485  1.4783 -1.0724
 1731SOL    HW2 5235   0.442   2.249   0.017  0.7460 -0.6491  0.5067
 1732SOL     OW 5236   4.228   2.028   0.348 -0.0190  0.1884 -0.6274
 1732SOL    HW1 5237   4.303   1.976   0.319 -0.2703 -0.7664  0.3931
 1732SOL    HW2 5238   4.181   2.049   0.267 -1.4321 -3.5055 -0.9918
 1733SOL     OW 5239   4.235   2.782   0.891  0.7210  0.1440  0.7287
 1733SOL    HW1 5240   4.279   2.730   0.824  0.2797  1.3422 -0.5540
 1733SOL    HW2 5241   4.285   2.766   0.971  3.4989  1.3551 -0.6144
 1734SOL     OW 5242   3.758   2.727   1.254 -0.3490 -0.7103 -0.1954
 1734SOL    HW1 5243   3.839   2.676   1.251 -1.4134 -2.4744 -0.3935
 1734SOL    HW2 5244   3.787   2.817   1.270  1.5102 -1.7049  3.0428
 1735SOL     OW 5245   4.363   1.758   0.580  0.3747 -0.8851 -0.2004
 1735SOL    HW1 5246   4.401   1.736   0.494  1.0184 -0.6534  0.0167
 1735SOL    HW2 5247   4.332   1.674   0.614  1.0684 -1.1548 -0.2101
 1736SOL     OW 5248   4.036   2.638   1.297  0.0261  0.0868  0.4799
 1736SOL    HW1 5249   4.056   2.604   1.384 -0.9342 -0.8279  0.3621
 1736SOL    HW2 5250   4.049   2.564   1.238 -1.2556  0.1352  0.1042
 1737SOL     OW 5251   4.549   3.785   1.253  0.2770  0.5940 -0.8309
 1737SOL    HW1 5252   4.578   3.741   1.333  1.5550  0.0348 -1.5685
 1737SOL    HW2 5253   4.531   3.875   1.280  0.4470  0.3469  0.1360
 1738SOL     OW 5254   4.020   3.129   0.636 -0.4926 -0.0417  0.4566
 1738SOL    HW1 5255   4.103   3.134   0.589  0.2042 -0.3562  1.6208
 1738SOL    HW2 5256   3.997   3.036   0.634  0.4559 -0.3591  2.2197
 1739SOL     OW 5257   4.366   2.427   1.095  0.8598  0.0407 -0.3536
 1739SOL    HW1 5258   4.432   2.381   1.147  0.1625  0.6376  1.0986
 1739SOL    HW2 5259   4.284   2.412   1.141  0.4306  1.6957 -0.5210
 1740SOL     OW 5260   4.279   3.324   1.339  0.7675 -0.5899 -0.6335
 1740SOL    HW1 5261   4.218   3.363   1.276  0.6484  0.7526  0.2672
 1740SOL    HW2 5262   4.365   3.360   1.316  0.6116  0.5180  0.3836
 1741SOL     OW 5263   4.349   2.579   1.700 -0.3880  0.1711 -0.1512
 1741SOL    HW1 5264   4.290   2.652   1.678  1.1438  1.7563  0.7969
 1741SOL    HW2 5265   4.321   2.551   1.787  0.0100  0.7164  0.1640
 1742SOL     OW 5266   4.173   1.705   1.285  0.2225  0.1979 -0.1884
 1742SOL    HW1 5267   4.141   1.655   1.359 -0.9593 -1.9612 -2.0244
 1742SOL    HW2 5268   4.230   1.645   1.237  2.3649  2.0787 -0.2086
 1743SOL     OW 5269   3.992   2.682   0.965  0.1129 -0.1338 -0.5247
 1743SOL    HW1 5270   4.025   2.602   1.007  0.9587  1.3824  1.8884
 1743SOL    HW2 5271   4.070   2.725   0.930 -0.4456 -0.7518 -2.6639
 1744SOL     OW 5272   4.081   2.028   1.251  0.2825 -0.1377  0.1351
 1744SOL    HW1 5273   4.013   2.001   1.312  0.2654 -1.3143 -0.3669
 1744SOL    HW2 5274   4.146   1.958   1.255 -1.0519 -1.8103 -3.2185
 1745SOL     OW 5275   3.779   3.228   1.700 -0.1118  0.3100 -0.5204
 1745SOL    HW1 5276   3.856   3.237   1.756 -0.0645 -1.1423 -0.3277
 1745SOL    HW2 5277   3.780   3.307   1.645  0.4587  1.2195  0.7377
 1746SOL     OW 5278   3.709   1.762   0.509 -0.1528 -0.2912 -0.2389
 1746SOL    HW1 5279   3.635   1.804   0.553  0.6279 -0.5723  1.4461
 1746SOL    HW2 5280   3.706   1.671   0.538  0.3033 -0.5380 -0.9276
 1747SOL     OW 5281   3.901   2.367   1.741 -0.2938 -1.0297 -0.2186
 1747SOL    HW1 5282   3.958   2.350   1.816  1.0082 -0.6142 -1.0865
 1747SOL    HW2 5283   3.813   2.372   1.779  0.3425 -0.7561  1.2933
 1748SOL     OW 5284   3.761   2.557   0.828 -0.1743  0.0907 -0.2077
 1748SOL    HW1 5285   3.832   2.598   0.877 -0.4050  0.6749 -0.3654
 1748SOL    HW2 5286   3.702   2.523   0.895 -0.5417  0.9793 -0.0732
 1749SOL     OW 5287   4.002   2.452   1.089  0.6000  0.0531  0.3104
 1749SOL    HW1 5288   4.043   2.389   1.148  1.2474 -0.3932 -0.6000
 1749SOL    HW2 5289   3.930   2.403   1.048  1.6470 -0.3944 -1.0559
 1750SOL     OW 5290   4.063   3.725   1.242 -0.1718  0.0285 -0.5444
 1750SOL    HW1 5291   4.097   3.791   1.182 -0.7347 -0.0178 -0.9117
 1750SOL    HW2 5292   4.126   3.725   1.315  0.7110 -0.1637 -1.2841
 1751SOL     OW 5293   3.656   2.528   1.096  0.1937 -0.2822  0.4248
 1751SOL    HW1 5294   3.684   2.456   1.153  1.1765 -0.6662 -0.5076
 1751SOL    HW2 5295   3.673   2.607   1.148  0.3593 -0.6564  0.9536
 1752SOL     OW 5296   3.807   2.479   1.383  0.3263 -0.1402 -0.6178
 1752SOL    HW1 5297   3.777   2.567   1.361  0.1594 -0.0965 -0.2179
 1752SOL    HW2 5298   3.890   2.492   1.428  1.2132 -0.2811 -2.1192
 1753SOL     OW 5299   2.352   4.786   2.817  0.2874  0.1109 -0.2935
 1753SOL    HW1 5300   2.386   4.745   2.737  0.2148  0.7111 -0.6417
 1753SOL    HW2 5301   2.269   4.741   2.834  0.8601 -0.8143  0.1042
 1754SOL     OW 5302   3.957   3.719   2.067 -0.3817  0.2892  0.3818
 1754SOL    HW1 5303   3.999   3.645   2.111 -0.6089  0.0096  0.1300
 1754SOL    HW2 5304   3.879   3.682   2.027 -0.6480  0.7243  0.4979
 1755SOL     OW 5305   6.362   4.660   3.017 -0.1897 -0.4936  0.1945
 1755SOL    HW1 5306   6.442   4.633   2.972  0.2972  2.0576 -0.6063
 1755SOL    HW2 5307   6.392   4.717   3.088 -1.2685  1.2210 -0.6519
 1756SOL     OW 5308   4.038   3.087   1.549 -0.0192  0.0101 -0.0305
 1756SOL    HW1 5309   3.968   3.050   1.603 -0.7105 -0.3347 -1.1259
 1756SOL    HW2 5310   4.083   3.011   1.511  0.7131  0.2377  0.3621
 1757SOL     OW 5311   4.328   3.044   1.237 -0.4625  0.1979  0.1285
 1757SOL    HW1 5312   4.248   2.999   1.265 -2.3101  2.1039 -1.6951
 1757SOL    HW2 5313   4.314   3.135   1.264  1.4106  0.4624  0.2935
 1758SOL     OW 5314   4.256   3.521   2.132 -0.3372  0.4018  0.3251
 1758SOL    HW1 5315   4.177   3.521   2.187 -0.8191 -0.6381 -0.3367
 1758SOL    HW2 5316   4.315   3.460   2.176 -0.6648 -0.3154 -0.2110
 1759SOL     OW 5317   3.767   2.246   1.064  0.0329  0.7223 -0.1404
 1759SOL    HW1 5318   3.704   2.231   0.993  0.0412  0.4088 -0.0818
 1759SOL    HW2 5319   3.773   2.162   1.109  0.7634  0.6497 -0.3598
 1760SOL     OW 5320   4.058   3.361   1.508  0.0909 -0.5387  0.4665
 1760SOL    HW1 5321   4.142   3.378   1.464 -1.6802  0.6102 -2.8715
 1760SOL    HW2 5322   4.055   3.266   1.520  1.9972 -0.5586  1.0265
 1761SOL     OW 5323   4.119   3.358   0.431 -0.3106  0.0569  0.5292
 1761SOL    HW1 5324   4.158   3.276   0.462  1.1299  0.6943  0.5031
 1761SOL    HW2 5325   4.125   3.418   0.505  1.1435  0.9225 -0.2279
 1762SOL     OW 5326   3.911   2.936   1.727  0.4567  0.5551  0.1867
 1762SOL    HW1 5327   3.821   2.937   1.760  0.6409 -0.0494  0.7288
 1762SOL    HW2 5328   3.962   2.898   1.798  1.1816  1.0876 -0.0305
 1763SOL     OW 5329   3.752   4.087   1.869 -0.5595  0.3612  0.2133
 1763SOL    HW1 5330   3.743   4.047   1.783 -0.3510  0.5741  0.0894
 1763SOL    HW2 5331   3.681   4.049   1.921  1.0310 -2.0342  0.8185
 1764SOL     OW 5332   4.220   3.146   1.956 -0.1728 -0.3167  0.0438
 1764SOL    HW1 5333   4.141   3.187   1.991 -0.3006 -0.5609  0.0425
 1764SOL    HW2 5334   4.292   3.190   2.002 -0.3746 -1.5051  1.5879
 1765SOL     OW 5335   3.815   3.269   0.820  0.5208 -0.0653 -0.7420
 1765SOL    HW1 5336   3.823   3.186   0.865  1.1133  0.6880  0.5995
 1765SOL    HW2 5337   3.900   3.282   0.778  0.5713  0.0642 -0.5993
 1766SOL     OW 5338   4.555   3.528   1.579  0.4692  0.0159  0.1813
 1766SOL    HW1 5339   4.620   3.515   1.510  1.0070  0.5496  0.5786
 1766SOL    HW2 5340   4.550   3.623   1.590 -0.9425  0.0315 -0.3711
 1767SOL     OW 5341   4.248   2.463   0.423 -0.3027 -0.0747  1.0385
 1767SOL    HW1 5342   4.322   2.418   0.464  0.9838  1.6028  0.6485
 1767SOL    HW2 5343   4.227   2.409   0.346 -0.5991 -1.4464  2.0401
 1768SOL     OW 5344   4.106   2.293   1.268  0.0212  0.5384 -0.1123
 1768SOL    HW1 5345   4.085   2.311   1.360  0.7805  0.0443  0.1679
 1768SOL    HW2 5346   4.116   2.198   1.264 -0.9816  0.4508 -0.9283
 1769SOL     OW 5347   3.900   3.011   0.189 -0.4108  0.3840 -0.4561
 1769SOL    HW1 5348   3.960   2.969   0.250 -1.7673 -0.9260  0.0428
 1769SOL    HW2 5349   3.893   3.101   0.221 -0.6233 -0.1175  0.9906
 1770SOL     OW 5350   4.171   2.115   1.620  0.3203 -0.2948 -0.4512
 1770SOL    HW1 5351   4.126   2.122   1.704  1.4559  0.5150  0.1233
 1770SOL    HW2 5352   4.101   2.116   1.555 -0.5183  0.3825  0.4269
 1771SOL     OW 5353   2.250   0.187   0.172 -0.2255  0.0158 -0.2293
 1771SOL    HW1 5354   2.163   0.173   0.135 -0.1979 -2.8315  0.5870
 1771SOL    HW2 5355   2.261   0.117   0.235  2.5447  0.5115 -0.0443
 1772SOL     OW 5356   3.822   2.457   2.699 -0.1365  0.6334 -0.3230
 1772SOL    HW1 5357   3.812   2.546   2.665  2.7508  0.7625 -1.0672
 1772SOL    HW2 5358   3.884   2.415   2.640 -1.3199 -1.8992  0.0694
 1773SOL     OW 5359   4.530   2.677   2.643  0.2624  0.6511 -0.1301
 1773SOL    HW1 5360   4.585   2.636   2.576  0.4004  0.6188  0.0009
 1773SOL    HW2 5361   4.552   2.630   2.723 -0.2444  0.3741 -0.1452
 1774SOL     OW 5362   4.168   3.473   2.889  0.1102 -0.2700  0.1431
 1774SOL    HW1 5363   4.116   3.553   2.885  1.0359  0.4601  1.7830
 1774SOL    HW2 5364   4.104   3.403   2.899 -0.7468  0.1711 -1.7652
 1775SOL     OW 5365   3.915   3.641   2.623  0.4199 -0.0586 -0.1568
 1775SOL    HW1 5366   3.836   3.587   2.622  0.6183 -0.3460 -0.6109
 1775SOL    HW2 5367   3.939   3.648   2.715  0.3400 -0.6650 -0.0896
 1776SOL     OW 5368   3.562   3.409   2.419 -0.6136  0.1532  0.6987
 1776SOL    HW1 5369   3.482   3.362   2.442 -0.9667  0.6251  0.4727
 1776SOL    HW2 5370   3.612   3.348   2.365 -0.8515 -0.1271  0.7966
 1777SOL     OW 5371   4.037   3.164   2.558  0.8285  0.1068  0.0663
 1777SOL    HW1 5372   3.979   3.126   2.491 -2.2185  1.3161  1.7985
 1777SOL    HW2 5373   4.078   3.239   2.514  2.2859 -1.5798 -1.6140
 1778SOL     OW 5374   4.161   2.589   2.403  0.4143 -0.0057 -0.2510
 1778SOL    HW1 5375   4.231   2.564   2.343 -0.4170 -0.6417 -0.9874
 1778SOL    HW2 5376   4.124   2.506   2.433 -0.1649  0.3185 -0.0530
 1779SOL     OW 5377   3.750   3.603   2.326  1.0096  0.1722  0.3956
 1779SOL    HW1 5378   3.713   3.691   2.322  1.6950  0.5441  1.6517
 1779SOL    HW2 5379   3.680   3.549   2.363  0.8281  0.3284  0.2817
 1780SOL     OW 5380   4.291   2.497   1.953 -0.3253 -0.4601  0.0702
 1780SOL    HW1 5381   4.224   2.469   2.015 -1.1467  0.5460 -0.3333
 1780SOL    HW2 5382   4.347   2.556   2.004  0.8206 -1.9993  0.6523
 1781SOL     OW 5383   4.051   2.892   2.649  0.5295 -0.1392  0.0825
 1781SOL    HW1 5384   4.098   2.975   2.648 -0.6157  0.5395 -0.8901
 1781SOL    HW2 5385   4.118   2.825   2.635  1.3006  0.7242 -0.4502
 1782SOL     OW 5386   4.642   1.965   2.196  0.5682 -0.1932  0.0887
 1782SOL    HW1 5387   4.671   1.900   2.132  0.6289 -0.7407  0.6729
 1782SOL    HW2 5388   4.578   1.919   2.250 -1.0919  0.8428 -0.8701
 1783SOL     OW 5389   3.994   2.137   2.947  0.1312  0.1287 -0.0762
 1783SOL    HW1 5390   4.003   2.090   3.030  0.8854  1.3335  0.5567
 1783SOL    HW2 5391   3.990   2.068   2.881  0.3866 -0.8394  0.8859
 1784SOL     OW 5392   4.125   3.946   2.935 -0.7864  0.7059  0.0875
 1784SOL    HW1 5393   4.162   3.916   3.017 -1.4992  0.1912  0.2343
 1784SOL    HW2 5394   4.201   3.968   2.881 -0.1041 -2.2969 -0.3965
 1785SOL     OW 5395   4.147   3.047   2.250 -0.0462  0.0296 -0.1988
 1785SOL    HW1 5396   4.111   3.125   2.207 -1.2468 -1.2889 -1.7483
 1785SOL    HW2 5397   4.234   3.073   2.278 -1.1589  2.5867  1.3392
 1786SOL     OW 5398   4.097   2.407   2.114 -0.6046 -0.3166  0.1015
 1786SOL    HW1 5399   4.106   2.329   2.168  0.3316  0.2670  0.8232
 1786SOL    HW2 5400   4.030   2.459   2.158 -0.4013 -0.1984  0.2757
 1787SOL     OW 5401   4.196   1.843   2.197 -0.5673  0.3281 -0.4464
 1787SOL    HW1 5402   4.203   1.932   2.231 -0.9278  0.2546 -0.1770
 1787SOL    HW2 5403   4.265   1.795   2.242 -1.3266  0.1265  0.5240
 1788SOL     OW 5404   4.062   6.274   2.782  0.2493 -0.2801 -0.0377
 1788SOL    HW1 5405   4.140   6.258   2.836 -0.6111 -0.7066  1.1027
 1788SOL    HW2 5406   4.097   6.287   2.694  1.8337  1.8734  0.8199
 1789SOL     OW 5407   4.315   2.986   2.817 -0.2448 -0.1550  0.0284
 1789SOL    HW1 5408   4.399   2.966   2.775 -1.8251 -1.5430 -2.7394
 1789SOL    HW2 5409   4.309   2.924   2.889  0.5972 -0.8421 -0.4613
 1790SOL     OW 5410   4.279   2.760   2.578  0.0225  0.0489  0.0455
 1790SOL    HW1 5411   4.261   2.702   2.505  0.9472 -1.1603  0.7228
 1790SOL    HW2 5412   4.374   2.756   2.589  0.1069  1.6345  0.1883
 1791SOL     OW 5413   4.520   2.392   2.880  0.0174  0.7795  0.0519
 1791SOL    HW1 5414   4.465   2.432   2.813  1.4872  0.3196 -1.4928
 1791SOL    HW2 5415   4.579   2.463   2.908  0.3354  0.6116 -0.1836
 1792SOL     OW 5416   3.768   2.101   2.648  0.1526 -0.2097  0.6540
 1792SOL    HW1 5417   3.807   2.163   2.709 -0.3864  0.3882  0.3929
 1792SOL    HW2 5418   3.688   2.144   2.617  0.6104 -0.3419 -0.7659
 1793SOL     OW 5419   4.121   3.186   2.842  0.2590  0.0770  0.0571
 1793SOL    HW1 5420   4.184   3.116   2.860  1.0849  0.4990 -1.1338
 1793SOL    HW2 5421   4.131   3.204   2.749 -3.0196 -1.1654 -0.6541
 1794SOL     OW 5422   4.242   2.518   2.784 -0.5509 -0.8213  0.2564
 1794SOL    HW1 5423   4.176   2.533   2.852  1.0875  2.0544  1.4338
 1794SOL    HW2 5424   4.239   2.597   2.730  2.3554 -0.1620  0.8759
 1795SOL     OW 5425   3.885   2.729   1.958  0.6010 -0.4960  0.5511
 1795SOL    HW1 5426   3.949   2.772   2.014  1.0593 -1.6625  0.9339
 1795SOL    HW2 5427   3.926   2.727   1.872  0.3632  0.2791  0.4106
 1796SOL     OW 5428   3.647   3.508   2.643 -0.4975 -0.1635  0.3402
 1796SOL    HW1 5429   3.613   3.457   2.570  1.0591 -0.1488 -0.4202
 1796SOL    HW2 5430   3.664   3.443   2.711 -2.1804 -0.1497  0.8292
 1797SOL     OW 5431   4.225   1.907   1.906  0.2538  0.1838 -0.1048
 1797SOL    HW1 5432   4.180   1.884   1.987  1.7486  0.0585  0.7314
 1797SOL    HW2 5433   4.286   1.976   1.932  0.9591 -0.0607 -1.0565
 1798SOL     OW 5434   4.430   2.070   1.614  0.7416 -0.4651  0.1201
 1798SOL    HW1 5435   4.339   2.087   1.638  0.9703  0.1179  0.5809
 1798SOL    HW2 5436   4.473   2.047   1.696  0.5796 -2.8086 -0.3743
 1799SOL     OW 5437   3.653   3.165   2.681  0.5656  0.7124 -0.1539
 1799SOL    HW1 5438   3.652   3.235   2.746  1.8124 -0.4481  1.1899
 1799SOL    HW2 5439   3.705   3.095   2.721  0.8759 -0.3007 -2.1652
 1800SOL     OW 5440   4.269   2.226   2.702 -0.0731  0.1549 -0.7176
 1800SOL    HW1 5441   4.254   2.319   2.716  1.9294  0.3742  0.3293
 1800SOL    HW2 5442   4.223   2.183   2.774 -0.7055  0.3385 -1.0047
 1801SOL     OW 5443   4.438   3.378   2.579 -0.1937  0.5974  0.3813
 1801SOL    HW1 5444   4.518   3.328   2.596  0.6893  2.1317  0.9206
 1801SOL    HW2 5445   4.412   3.412   2.665 -0.5155  1.4401 -0.0411
 1802SOL     OW 5446   4.022   3.255   2.114  0.1514 -0.0892 -0.0856
 1802SOL    HW1 5447   3.936   3.251   2.072  0.5797 -0.3893 -0.9484
 1802SOL    HW2 5448   4.021   3.337   2.163 -0.4847  0.0927 -0.3997
 1803SOL     OW 5449   1.974   4.469   0.118  0.2838  0.5456 -0.0828
 1803SOL    HW1 5450   1.902   4.519   0.079 -0.0066 -1.0155 -1.6462
 1803SOL    HW2 5451   1.931   4.404   0.173  0.6201  1.0928  0.8619
 1804SOL     OW 5452   3.856   2.128   2.102  0.0900 -0.2350 -0.2656
 1804SOL    HW1 5453   3.844   2.047   2.052  1.2197 -0.6113  0.0322
 1804SOL    HW2 5454   3.946   2.123   2.134 -0.8477 -0.3970  2.5451
 1805SOL     OW 5455   3.824   2.310   2.330  0.0770 -0.3626 -0.2784
 1805SOL    HW1 5456   3.759   2.381   2.331  0.6697  0.1813  0.4443
 1805SOL    HW2 5457   3.817   2.274   2.242  0.0822  0.8972 -0.8238
 1806SOL     OW 5458   4.196   3.433   2.473  1.1390  0.0235 -0.0055
 1806SOL    HW1 5459   4.279   3.391   2.497  0.7194 -0.8877 -0.1052
 1806SOL    HW2 5460   4.193   3.512   2.527  1.0203 -1.0918  1.7136
 1807SOL     OW 5461   4.346   2.271   2.456  0.0583 -0.1709 -0.4553
 1807SOL    HW1 5462   4.287   2.230   2.394 -2.0589  1.1412  0.5691
 1807SOL    HW2 5463   4.307   2.253   2.542  0.4599  1.7566  0.1788
 1808SOL     OW 5464   4.039   2.799   2.263 -0.2115 -0.1335 -0.0658
 1808SOL    HW1 5465   4.090   2.869   2.304 -1.2655 -0.9714  2.9982
 1808SOL    HW2 5466   4.075   2.719   2.302  1.2530 -1.4830 -3.7778
 1809SOL     OW 5467   3.971   4.207   1.163  0.1986  0.2976  0.7594
 1809SOL    HW1 5468   3.939   4.297   1.159  0.7027  0.6273  2.9238
 1809SOL    HW2 5469   4.067   4.216   1.169  0.5694 -0.5527 -2.1955
 1810SOL     OW 5470   3.484   4.395   0.744 -0.0576 -0.4528 -0.2200
 1810SOL    HW1 5471   3.462   4.449   0.819  0.6580  0.9228 -0.9644
 1810SOL    HW2 5472   3.467   4.451   0.668 -1.4241 -2.0173 -1.1680
 1811SOL     OW 5473   4.290   3.810   1.753 -0.3474  0.2629 -0.3526
 1811SOL    HW1 5474   4.348   3.744   1.791 -0.2280 -0.6858 -2.0555
 1811SOL    HW2 5475   4.235   3.840   1.826 -0.7490 -2.1179  0.4027
 1812SOL     OW 5476   3.783   4.408   0.582 -0.9173  0.2319 -0.6864
 1812SOL    HW1 5477   3.728   4.333   0.601 -0.6216 -0.5053 -2.5191
 1812SOL    HW2 5478   3.794   4.453   0.667 -0.4450 -2.2033  0.6246
 1813SOL     OW 5479   3.968   4.381   2.105  0.0691  0.9662  0.3819
 1813SOL    HW1 5480   4.051   4.426   2.120  0.8047 -0.3574  0.4280
 1813SOL    HW2 5481   3.982   4.293   2.139  0.2822 -0.8277 -3.7978
 1814SOL     OW 5482   3.661   4.727   0.924  0.7089  0.0077  0.3991
 1814SOL    HW1 5483   3.674   4.794   0.991 -1.9659  1.7140 -0.6259
 1814SOL    HW2 5484   3.588   4.675   0.956  0.1353  0.1448 -0.6316
 1815SOL     OW 5485   4.247   4.035   0.436 -0.2147  0.0005 -0.2203
 1815SOL    HW1 5486   4.332   4.004   0.467 -0.8655  0.0920  1.7772
 1815SOL    HW2 5487   4.263   4.125   0.407  0.5384 -0.2972 -0.7771
 1816SOL     OW 5488   4.147   3.906   1.057 -0.0781 -0.0179  0.4733
 1816SOL    HW1 5489   4.084   3.893   0.986  1.1816 -0.2317 -0.6234
 1816SOL    HW2 5490   4.209   3.834   1.048  0.0791 -0.0957  1.8545
 1817SOL     OW 5491   3.839   3.961   1.623  0.0095  0.5947  0.3191
 1817SOL    HW1 5492   3.916   3.989   1.673  1.8419 -1.6468 -1.0128
 1817SOL    HW2 5493   3.853   3.996   1.536  0.9235 -1.8134 -0.6093
 1818SOL     OW 5494   4.140   3.939   0.662 -0.6851  0.3156  0.6216
 1818SOL    HW1 5495   4.061   3.895   0.630  0.3155 -1.4146  0.4223
 1818SOL    HW2 5496   4.171   3.989   0.586 -0.5161 -0.5844  0.0856
 1819SOL     OW 5497   3.482   4.685   1.636 -0.7567 -0.3528 -0.0844
 1819SOL    HW1 5498   3.472   4.780   1.627 -1.5745 -0.5061 -0.9440
 1819SOL    HW2 5499   3.438   4.664   1.718 -1.1531 -0.0712 -0.2225
 1820SOL     OW 5500   4.430   3.665   1.928  0.2536 -0.0132 -0.4695
 1820SOL    HW1 5501   4.359   3.649   1.990 -0.3007  2.4529 -0.3377
 1820SOL    HW2 5502   4.465   3.579   1.907 -1.9235 -1.1940  0.4831
 1821SOL     OW 5503   4.229   4.207   1.118  0.2196 -0.3759 -0.1824
 1821SOL    HW1 5504   4.212   4.124   1.073  0.1445  0.3193 -1.4678
 1821SOL    HW2 5505   4.289   4.254   1.060 -1.3504  1.3343 -0.5289
 1822SOL     OW 5506   4.017   3.869   2.292 -0.5941 -0.2691 -0.5212
 1822SOL    HW1 5507   3.964   3.946   2.311 -1.1727 -0.3832 -1.5667
 1822SOL    HW2 5508   3.983   3.837   2.208  2.0398  0.4636 -1.9815
 1823SOL     OW 5509   3.810   3.453   1.505 -0.2462  0.5425 -0.4456
 1823SOL    HW1 5510   3.891   3.405   1.491 -0.0457  1.0850 -1.1992
 1823SOL    HW2 5511   3.837   3.536   1.544 -0.6154 -0.0451  1.1463
 1824SOL     OW 5512   3.918   3.887   0.915 -0.1433 -0.1115  0.6716
 1824SOL    HW1 5513   3.852   3.953   0.894 -0.4127 -0.2081  1.1799
 1824SOL    HW2 5514   3.871   3.804   0.911  0.1342 -0.2493  0.2822
 1825SOL     OW 5515   4.090   4.446   1.370  0.2081  0.7665  0.3545
 1825SOL    HW1 5516   4.082   4.378   1.437  1.2479  1.8066  1.6129
 1825SOL    HW2 5517   4.180   4.478   1.380  0.3486  1.0142 -1.5029
 1826SOL     OW 5518   3.750   4.401   1.154 -0.3983 -0.2186 -0.0230
 1826SOL    HW1 5519   3.732   4.317   1.112  2.2470 -1.5251  1.2223
 1826SOL    HW2 5520   3.669   4.422   1.201 -1.1543 -2.0360 -0.4225
 1827SOL     OW 5521   4.320   4.246   2.293  0.1325  0.3821 -0.5197
 1827SOL    HW1 5522   4.292   4.330   2.257  1.7441  1.4540  0.6380
 1827SOL    HW2 5523   4.242   4.214   2.340  0.0165  2.1038  0.5455
 1828SOL     OW 5524   0.395   4.231   0.528  0.2809  0.0174  0.2561
 1828SOL    HW1 5525   0.394   4.136   0.544  1.3213  0.2102  1.6026
 1828SOL    HW2 5526   0.305   4.258   0.546 -0.3997 -0.8802 -1.4973
 1829SOL     OW 5527   3.971   4.117   0.332 -0.4873  0.3529  0.3824
 1829SOL    HW1 5528   4.054   4.070   0.331 -0.4675  0.3858  0.4657
 1829SOL    HW2 5529   3.994   4.204   0.366 -0.3229  0.7876 -0.7983
 1830SOL     OW 5530   3.663   4.187   0.732  0.4597  0.2264 -0.4555
 1830SOL    HW1 5531   3.597   4.256   0.739  0.1167 -0.1656  0.2620
 1830SOL    HW2 5532   3.694   4.175   0.822  1.8733  0.7487 -0.8464
 1831SOL     OW 5533   3.882   3.956   0.077  0.0911 -0.5186  0.1167
 1831SOL    HW1 5534   3.848   3.974   0.165  0.1432 -0.6889  0.1729
 1831SOL    HW2 5535   3.911   4.041   0.044 -1.0637 -0.2342 -0.2121
 1832SOL     OW 5536   4.051   4.346   0.445 -0.2340 -0.2709 -0.3994
 1832SOL    HW1 5537   4.107   4.423   0.440 -0.5858  0.0328  0.1959
 1832SOL    HW2 5538   3.963   4.381   0.455 -0.3237 -0.7523  0.5725
 1833SOL     OW 5539   4.183   4.011   1.352  0.1671  0.1640  0.0229
 1833SOL    HW1 5540   4.156   4.005   1.261 -0.1231  0.5112  0.0901
 1833SOL    HW2 5541   4.270   4.050   1.349  0.0272  0.4630 -0.0816
 1834SOL     OW 5542   3.934   4.145   2.902 -0.1034 -0.1437 -0.3154
 1834SOL    HW1 5543   3.933   4.141   2.806  0.6292  0.4952 -0.3541
 1834SOL    HW2 5544   3.993   4.075   2.928  0.4731  0.3196 -0.3714
 1835SOL     OW 5545   3.458   4.006   2.583  0.3682 -0.2602 -0.0429
 1835SOL    HW1 5546   3.399   4.060   2.530 -1.3331  0.1373  2.0782
 1835SOL    HW2 5547   3.490   4.065   2.651  1.4101 -1.0648  0.1902
 1836SOL     OW 5548   4.082   4.331   2.651 -0.0397  0.1143  0.4107
 1836SOL    HW1 5549   4.046   4.245   2.631 -0.0504  0.5101 -1.4428
 1836SOL    HW2 5550   4.143   4.316   2.723 -1.7155 -1.0391  1.6573
 1837SOL     OW 5551   3.546   4.167   2.858 -0.7120 -0.0854 -0.2093
 1837SOL    HW1 5552   3.593   4.084   2.869 -1.1388 -0.3948 -0.6998
 1837SOL    HW2 5553   3.591   4.228   2.917  1.0335 -0.0658 -1.4768
 1838SOL     OW 5554   5.036   3.825   2.420 -0.4011 -0.0139  0.4648
 1838SOL    HW1 5555   4.958   3.777   2.449  0.0051 -0.6793  0.4760
 1838SOL    HW2 5556   5.047   3.800   2.328 -0.5657  0.5790  0.2796
 1839SOL     OW 5557   3.962   4.387   3.037  0.1772  0.2160  0.4234
 1839SOL    HW1 5558   3.945   4.448   2.965 -1.3938 -0.3368  0.2944
 1839SOL    HW2 5559   3.957   4.300   2.998 -0.1672 -0.0779  1.0976
 1840SOL     OW 5560   4.410   3.309   2.187 -0.9952 -0.0715  0.4724
 1840SOL    HW1 5561   4.434   3.346   2.272  0.3747  1.6970 -0.6121
 1840SOL    HW2 5562   4.493   3.277   2.151 -0.7920  2.5503 -1.6941
 1841SOL     OW 5563   3.996   3.471   2.275 -0.2509 -0.2822  0.9246
 1841SOL    HW1 5564   4.041   3.480   2.358  0.3039  2.3259  0.4232
 1841SOL    HW2 5565   3.917   3.524   2.284 -0.1546  0.0927 -0.2026
 1842SOL     OW 5566   4.159   3.711   2.491  0.2218 -0.0605  0.3336
 1842SOL    HW1 5567   4.158   3.758   2.408 -1.7030 -0.8290 -0.1379
 1842SOL    HW2 5568   4.068   3.712   2.521  0.7256 -0.5190  2.0314
 1843SOL     OW 5569   4.608   3.811   2.953  0.1551  0.0848  0.6551
 1843SOL    HW1 5570   4.635   3.722   2.977 -1.6121 -0.4113  0.9602
 1843SOL    HW2 5571   4.595   3.855   3.037  2.7158  1.2272  0.5139
 1844SOL     OW 5572   3.993   4.077   2.611  0.1326 -0.1444 -0.0762
 1844SOL    HW1 5573   3.927   4.020   2.572  0.0526  1.0186 -1.7452
 1844SOL    HW2 5574   4.076   4.046   2.574  0.0939  0.7450 -0.9547
 1845SOL     OW 5575   4.006   3.682   2.875  0.0549  0.0198  0.2369
 1845SOL    HW1 5576   4.050   3.764   2.892  0.3916 -0.3581  1.2447
 1845SOL    HW2 5577   3.929   3.683   2.932 -1.5206  0.8226 -1.7297
 1846SOL     OW 5578   1.782   1.854   0.325  0.3141 -0.3357  0.3925
 1846SOL    HW1 5579   1.846   1.869   0.395  0.3251  0.5880  0.1937
 1846SOL    HW2 5580   1.704   1.824   0.371 -0.0849  1.4339  0.9634
 1847SOL     OW 5581   4.680   4.074   2.279 -0.9279  0.0678  0.2135
 1847SOL    HW1 5582   4.690   4.000   2.219 -2.8165 -0.5015  0.5437
 1847SOL    HW2 5583   4.602   4.053   2.330 -0.5918  1.5562  1.4128
 1848SOL     OW 5584   4.210   4.042   2.451  0.1132 -0.0020 -0.0541
 1848SOL    HW1 5585   4.173   3.977   2.392  0.2977 -0.2694  0.1155
 1848SOL    HW2 5586   4.305   4.029   2.444  0.1056 -0.9100  1.2491
 1849SOL     OW 5587   3.946   4.096   2.081  0.3959 -0.0355 -0.4842
 1849SOL    HW1 5588   3.881   4.121   2.147  0.4361 -0.9612 -0.0792
 1849SOL    HW2 5589   3.895   4.067   2.006  0.3249 -0.8100 -0.1476
 1850SOL     OW 5590   3.790   3.876   2.577 -0.1214  0.1479  0.4765
 1850SOL    HW1 5591   3.832   3.792   2.594  0.6960  0.4860  0.1549
 1850SOL    HW2 5592   3.697   3.855   2.568  0.3494 -1.1172 -2.2551
 1851SOL     OW 5593   4.568   4.354   2.371  0.3358  0.8679  0.0293
 1851SOL    HW1 5594   4.631   4.291   2.337  1.8469  2.5923 -0.5479
 1851SOL    HW2 5595   4.487   4.305   2.381  1.4205 -1.1117 -0.4666
 1852NaJ    NaJ 5596   1.414   0.830   0.993 -0.0604 -0.0572  0.1395
 1853NaJ    NaJ 5597   1.705   4.540   1.763  0.1385 -0.6319  0.2168
 1854NaJ    NaJ 5598   1.601   4.301   0.635  0.2953 -0.0327  0.0037
 1855NaJ    NaJ 5599   3.836   4.743   1.397  0.0914 -0.1933 -0.2396
 1856NaJ    NaJ 5600   3.792   1.854   0.304  0.0433 -0.5207  0.1703
 1857ClJ    ClJ 5601   0.226   0.475   0.073 -0.1191  0.2154  0.1396
 1858ClJ    ClJ 5602   0.807   3.467   1.143  0.0353 -0.1232 -0.2946
 1859ClJ    ClJ 5603   2.862   1.738   0.032 -0.3543 -0.1804 -0.2089
 1860ClJ    ClJ 5604   2.263   4.226   2.870  0.2584 -0.5261 -0.1939
 1861ClJ    ClJ 5605   4.148   2.132   2.265  0.1944  0.2255  0.0541
   4.33090   4.33090   3.06241   0.00000   0.00000   0.00000   0.00000   2.16545   2.16545
