ligand in water
 5605
    1LIG      C    1   3.385   3.762   1.422
    1LIG     C1    2   3.325   3.621   1.434
    1LIG      O    3   3.204   3.631   1.512
    1LIG     C2    4   3.132   3.519   1.547
    1LIG      N    5   3.171   3.399   1.499
    1LIG     C3    6   3.105   3.290   1.538
    1LIG     C4    7   2.996   3.297   1.623
    1LIG     C5    8   2.952   3.420   1.669
    1LIG     N1    9   2.841   3.425   1.749
    1LIG     C6   10   3.021   3.535   1.631
    1LIG     C7   11   2.980   3.664   1.677
    1LIG     N2   12   2.944   3.767   1.717
    1LIG     N3   13   3.149   3.167   1.493
    1LIG     C8   14   3.073   3.065   1.444
    1LIG     O1   15   2.951   3.070   1.443
    1LIG     C9   16   3.147   2.945   1.385
    1LIG    C10   17   3.286   2.920   1.442
    1LIG    C11   18   3.303   2.843   1.559
    1LIG     CL   19   3.163   2.779   1.642
    1LIG    C12   20   3.432   2.815   1.607
    1LIG    C13   21   3.545   2.864   1.539
    1LIG    C14   22   3.528   2.942   1.424
    1LIG    C15   23   3.400   2.970   1.375
    1LIG      H   24   3.474   3.760   1.357
    1LIG     H1   25   3.312   3.832   1.379
    1LIG     H2   26   3.415   3.800   1.520
    1LIG     H3   27   3.303   3.582   1.334
    1LIG     H4   28   3.397   3.554   1.483
    1LIG     H5   29   2.945   3.206   1.654
    1LIG     H6   30   2.798   3.515   1.767
    1LIG     H7   31   2.784   3.342   1.758
    1LIG     H8   32   3.250   3.158   1.482
    1LIG     H9   33   3.084   2.856   1.399
    1LIG    H10   34   3.153   2.962   1.277
    1LIG    H11   35   3.445   2.754   1.696
    1LIG    H12   36   3.644   2.840   1.576
    1LIG    H13   37   3.616   2.978   1.370
    1LIG    H14   38   3.389   3.028   1.284
    1LIG    EP1   39   3.007   2.708   1.734
    1LIG    DCL   40   3.453   2.717   1.751
    1LIG    HV6   41   2.778   3.345   1.742
    1LIG    HV7   42   2.791   3.513   1.750
    1LIG    HV8   43   3.249   3.154   1.500
    1LIG   HV11   44   3.217   2.803   1.611
    1LIG   DEP1   45   3.477   2.609   1.911
    2SOL     OW   46   0.111   0.563   0.017
    2SOL    HW1   47   0.095   0.566   0.113
    2SOL    HW2   48   0.207   0.544   0.015
    3SOL     OW   49   4.541   0.273   0.991
    3SOL    HW1   50   4.596   0.240   1.065
    3SOL    HW2   51   4.452   0.275   1.033
    4SOL     OW   52   4.365   0.357   0.653
    4SOL    HW1   53   4.277   0.400   0.643
    4SOL    HW2   54   4.370   0.304   0.570
    5SOL     OW   55   4.905   1.300   1.255
    5SOL    HW1   56   4.828   1.306   1.195
    5SOL    HW2   57   4.911   1.393   1.285
    6SOL     OW   58   1.603   1.606   0.688
    6SOL    HW1   59   1.559   1.565   0.765
    6SOL    HW2   60   1.534   1.592   0.620
    7SOL     OW   61   1.140   0.717   0.686
    7SOL    HW1   62   1.184   0.804   0.682
    7SOL    HW2   63   1.082   0.728   0.763
    8SOL     OW   64   1.828   0.585   0.211
    8SOL    HW1   65   1.865   0.516   0.153
    8SOL    HW2   66   1.749   0.540   0.245
    9SOL     OW   67   5.071   1.128   1.126
    9SOL    HW1   68   5.005   1.179   1.177
    9SOL    HW2   69   5.110   1.202   1.075
   10SOL     OW   70   5.244   0.709   1.780
   10SOL    HW1   71   5.267   0.772   1.851
   10SOL    HW2   72   5.252   0.767   1.702
   11SOL     OW   73   0.693   0.987   0.676
   11SOL    HW1   74   0.758   0.996   0.748
   11SOL    HW2   75   0.624   1.051   0.700
   12SOL     OW   76   5.056   1.153   1.857
   12SOL    HW1   77   5.095   1.231   1.900
   12SOL    HW2   78   4.982   1.191   1.806
   13SOL     OW   79   4.703   1.366   1.082
   13SOL    HW1   80   4.662   1.305   1.019
   13SOL    HW2   81   4.737   1.437   1.024
   14SOL     OW   82   1.468   1.479   1.365
   14SOL    HW1   83   1.517   1.559   1.392
   14SOL    HW2   84   1.389   1.484   1.423
   15SOL     OW   85   4.824   0.390   1.464
   15SOL    HW1   86   4.915   0.357   1.468
   15SOL    HW2   87   4.780   0.331   1.528
   16SOL     OW   88   1.521   0.451   0.649
   16SOL    HW1   89   1.424   0.451   0.652
   16SOL    HW2   90   1.537   0.521   0.584
   17SOL     OW   91   4.551   1.712   0.477
   17SOL    HW1   92   4.570   1.788   0.536
   17SOL    HW2   93   4.617   1.727   0.406
   18SOL     OW   94   5.434   1.348   1.713
   18SOL    HW1   95   5.469   1.337   1.802
   18SOL    HW2   96   5.386   1.263   1.702
   19SOL     OW   97   4.664   1.470   0.517
   19SOL    HW1   98   4.627   1.560   0.512
   19SOL    HW2   99   4.592   1.422   0.562
   20SOL     OW  100   4.614   1.083   0.903
   20SOL    HW1  101   4.623   0.988   0.925
   20SOL    HW2  102   4.531   1.108   0.947
   21SOL     OW  103   4.966   1.753   1.527
   21SOL    HW1  104   4.872   1.764   1.553
   21SOL    HW2  105   4.986   1.841   1.491
   22SOL     OW  106   0.555   0.989   0.259
   22SOL    HW1  107   0.585   1.021   0.173
   22SOL    HW2  108   0.622   1.026   0.319
   23SOL     OW  109   1.581   0.130   1.517
   23SOL    HW1  110   1.535   0.061   1.467
   23SOL    HW2  111   1.509   0.175   1.562
   24SOL     OW  112   4.479   0.585   0.539
   24SOL    HW1  113   4.443   0.505   0.581
   24SOL    HW2  114   4.463   0.651   0.608
   25SOL     OW  115   1.932   1.732   0.243
   25SOL    HW1  116   1.996   1.714   0.314
   25SOL    HW2  117   1.926   1.829   0.246
   26SOL     OW  118   4.325   1.544   0.173
   26SOL    HW1  119   4.350   1.452   0.155
   26SOL    HW2  120   4.316   1.545   0.269
   27SOL     OW  121   1.716   0.940   0.665
   27SOL    HW1  122   1.808   0.921   0.639
   27SOL    HW2  123   1.684   0.988   0.588
   28SOL     OW  124   1.651   1.113   0.446
   28SOL    HW1  125   1.727   1.106   0.385
   28SOL    HW2  126   1.684   1.180   0.509
   29SOL     OW  127   4.545   0.701   1.634
   29SOL    HW1  128   4.643   0.705   1.639
   29SOL    HW2  129   4.522   0.794   1.649
   30SOL     OW  130   0.630   1.370   0.796
   30SOL    HW1  131   0.579   1.289   0.776
   30SOL    HW2  132   0.631   1.413   0.708
   31SOL     OW  133   1.214   1.164   1.465
   31SOL    HW1  134   1.250   1.124   1.385
   31SOL    HW2  135   1.294   1.195   1.512
   32SOL     OW  136   0.864   0.088   0.594
   32SOL    HW1  137   0.896   0.164   0.542
   32SOL    HW2  138   0.776   0.073   0.555
   33SOL     OW  139   4.474   0.874   1.266
   33SOL    HW1  140   4.571   0.875   1.267
   33SOL    HW2  141   4.458   0.788   1.222
   34SOL     OW  142   1.474   1.066   0.231
   34SOL    HW1  143   1.430   0.982   0.251
   34SOL    HW2  144   1.539   1.073   0.303
   35SOL     OW  145   1.255   1.876   1.664
   35SOL    HW1  146   1.219   1.923   1.587
   35SOL    HW2  147   1.254   1.784   1.636
   36SOL     OW  148   4.708   0.212   1.631
   36SOL    HW1  149   4.746   0.123   1.645
   36SOL    HW2  150   4.696   0.243   1.723
   37SOL     OW  151   1.490   1.469   0.894
   37SOL    HW1  152   1.425   1.475   0.966
   37SOL    HW2  153   1.481   1.377   0.864
   38SOL     OW  154   1.636   1.844   0.536
   38SOL    HW1  155   1.644   1.796   0.451
   38SOL    HW2  156   1.636   1.771   0.600
   39SOL     OW  157   0.625   0.744   0.366
   39SOL    HW1  158   0.594   0.823   0.319
   39SOL    HW2  159   0.545   0.717   0.414
   40SOL     OW  160   1.293   0.390   0.928
   40SOL    HW1  161   1.207   0.346   0.943
   40SOL    HW2  162   1.352   0.336   0.982
   41SOL     OW  163   1.659   1.718   0.302
   41SOL    HW1  164   1.750   1.705   0.272
   41SOL    HW2  165   1.606   1.691   0.225
   42SOL     OW  166   5.158   0.616   1.430
   42SOL    HW1  167   5.113   0.574   1.505
   42SOL    HW2  168   5.140   0.554   1.356
   43SOL     OW  169   1.407   0.484   1.667
   43SOL    HW1  170   1.394   0.527   1.754
   43SOL    HW2  171   1.458   0.405   1.693
   44SOL     OW  172   5.290   0.893   1.570
   44SOL    HW1  173   5.345   0.831   1.518
   44SOL    HW2  174   5.237   0.934   1.500
   45SOL     OW  175   1.058   0.414   1.195
   45SOL    HW1  176   0.965   0.440   1.210
   45SOL    HW2  177   1.052   0.367   1.111
   46SOL     OW  178   1.110   0.721   0.414
   46SOL    HW1  179   1.120   0.720   0.511
   46SOL    HW2  180   1.018   0.688   0.405
   47SOL     OW  181   4.447   0.741   0.759
   47SOL    HW1  182   4.522   0.759   0.818
   47SOL    HW2  183   4.425   0.831   0.728
   48SOL     OW  184   4.456   1.869   1.634
   48SOL    HW1  185   4.447   1.817   1.717
   48SOL    HW2  186   4.364   1.903   1.625
   49SOL     OW  187   0.881   0.428   0.212
   49SOL    HW1  188   0.951   0.457   0.150
   49SOL    HW2  189   0.863   0.338   0.177
   50SOL     OW  190   1.667   0.613   1.841
   50SOL    HW1  191   1.632   0.691   1.794
   50SOL    HW2  192   1.691   0.554   1.770
   51SOL     OW  193   1.393   1.165   0.563
   51SOL    HW1  194   1.463   1.153   0.498
   51SOL    HW2  195   1.333   1.229   0.519
   52SOL     OW  196   4.943   0.207   0.953
   52SOL    HW1  197   4.944   0.231   1.048
   52SOL    HW2  198   4.918   0.292   0.911
   53SOL     OW  199   0.992   1.481   0.501
   53SOL    HW1  200   0.973   1.547   0.433
   53SOL    HW2  201   0.949   1.520   0.578
   54SOL     OW  202   4.693   1.811   0.884
   54SOL    HW1  203   4.734   1.725   0.903
   54SOL    HW2  204   4.759   1.874   0.917
   55SOL     OW  205   1.788   1.007   0.926
   55SOL    HW1  206   1.760   0.996   0.833
   55SOL    HW2  207   1.703   1.025   0.970
   56SOL     OW  208   1.232   1.503   1.503
   56SOL    HW1  209   1.196   1.444   1.571
   56SOL    HW2  210   1.153   1.549   1.470
   57SOL     OW  211   0.281   0.988   0.262
   57SOL    HW1  212   0.378   0.979   0.271
   57SOL    HW2  213   0.272   0.995   0.165
   58SOL     OW  214   1.486   0.790   0.690
   58SOL    HW1  215   1.484   0.729   0.766
   58SOL    HW2  216   1.574   0.833   0.698
   59SOL     OW  217   4.837   1.265   1.723
   59SOL    HW1  218   4.789   1.272   1.638
   59SOL    HW2  219   4.762   1.250   1.784
   60SOL     OW  220   1.061   1.806   0.165
   60SOL    HW1  221   1.001   1.757   0.225
   60SOL    HW2  222   1.105   1.735   0.116
   61SOL     OW  223   4.517   0.260   1.446
   61SOL    HW1  224   4.486   0.351   1.457
   61SOL    HW2  225   4.579   0.249   1.521
   62SOL     OW  226   1.613   1.416   0.104
   62SOL    HW1  227   1.569   1.502   0.099
   62SOL    HW2  228   1.542   1.355   0.081
   63SOL     OW  229   0.444   1.753   0.325
   63SOL    HW1  230   0.493   1.804   0.392
   63SOL    HW2  231   0.516   1.704   0.282
   64SOL     OW  232   1.457   0.164   0.431
   64SOL    HW1  233   1.437   0.118   0.348
   64SOL    HW2  234   1.552   0.182   0.424
   65SOL     OW  235   4.531   1.783   1.244
   65SOL    HW1  236   4.575   1.697   1.256
   65SOL    HW2  237   4.493   1.775   1.155
   66SOL     OW  238   0.926   1.723   0.884
   66SOL    HW1  239   1.008   1.670   0.880
   66SOL    HW2  240   0.876   1.683   0.811
   67SOL     OW  241   0.415   0.664   0.520
   67SOL    HW1  242   0.446   0.573   0.539
   67SOL    HW2  243   0.319   0.649   0.509
   68SOL     OW  244   1.531   0.259   1.779
   68SOL    HW1  245   1.534   0.303   1.866
   68SOL    HW2  246   1.492   0.173   1.804
   69SOL     OW  247   0.536   0.103   0.126
   69SOL    HW1  248   0.610   0.048   0.155
   69SOL    HW2  249   0.570   0.145   0.046
   70SOL     OW  250   5.129   0.303   1.735
   70SOL    HW1  251   5.220   0.323   1.761
   70SOL    HW2  252   5.101   0.241   1.805
   71SOL     OW  253   5.184   1.504   1.239
   71SOL    HW1  254   5.161   1.469   1.150
   71SOL    HW2  255   5.241   1.433   1.273
   72SOL     OW  256   1.352   0.598   1.424
   72SOL    HW1  257   1.377   0.563   1.512
   72SOL    HW2  258   1.396   0.685   1.423
   73SOL     OW  259   0.811   1.361   1.002
   73SOL    HW1  260   0.898   1.369   0.957
   73SOL    HW2  261   0.749   1.370   0.927
   74SOL     OW  262   0.958   0.502   0.893
   74SOL    HW1  263   0.926   0.497   0.800
   74SOL    HW2  264   0.976   0.409   0.913
   75SOL     OW  265   0.623   0.074   0.466
   75SOL    HW1  266   0.549   0.051   0.525
   75SOL    HW2  267   0.592   0.157   0.427
   76SOL     OW  268   1.400   1.244   0.043
   76SOL    HW1  269   1.429   1.175   0.106
   76SOL    HW2  270   1.319   1.275   0.087
   77SOL     OW  271   0.272   0.048   0.117
   77SOL    HW1  272   0.367   0.072   0.113
   77SOL    HW2  273   0.269  -0.006   0.199
   78SOL     OW  274   0.950   0.301   0.453
   78SOL    HW1  275   0.921   0.343   0.370
   78SOL    HW2  276   1.047   0.300   0.444
   79SOL     OW  277   1.088   0.711   1.416
   79SOL    HW1  278   1.014   0.649   1.425
   79SOL    HW2  279   1.166   0.652   1.415
   80SOL     OW  280   1.172   1.617   0.837
   80SOL    HW1  281   1.202   1.674   0.765
   80SOL    HW2  282   1.217   1.657   0.914
   81SOL     OW  283   4.809   1.154   0.728
   81SOL    HW1  284   4.744   1.128   0.796
   81SOL    HW2  285   4.755   1.151   0.647
   82SOL     OW  286   1.240   1.807   0.654
   82SOL    HW1  287   1.292   1.864   0.594
   82SOL    HW2  288   1.168   1.867   0.680
   83SOL     OW  289   1.088   0.473   0.043
   83SOL    HW1  290   1.049   0.497  -0.044
   83SOL    HW2  291   1.176   0.512   0.035
   84SOL     OW  292   4.461   0.537   1.432
   84SOL    HW1  293   4.547   0.546   1.386
   84SOL    HW2  294   4.477   0.597   1.508
   85SOL     OW  295   4.940   0.267   1.216
   85SOL    HW1  296   4.973   0.247   1.305
   85SOL    HW2  297   4.844   0.256   1.227
   86SOL     OW  298   0.879   0.487   0.642
   86SOL    HW1  299   0.861   0.553   0.572
   86SOL    HW2  300   0.895   0.408   0.587
   87SOL     OW  301   1.015   0.019   0.801
   87SOL    HW1  302   0.966   0.043   0.719
   87SOL    HW2  303   0.942  -0.011   0.857
   88SOL     OW  304   1.530   1.211   0.799
   88SOL    HW1  305   1.469   1.190   0.725
   88SOL    HW2  306   1.612   1.230   0.751
   89SOL     OW  307   1.443   0.626   0.908
   89SOL    HW1  308   1.394   0.542   0.916
   89SOL    HW2  309   1.496   0.628   0.990
   90SOL     OW  310   1.872   0.820   0.353
   90SOL    HW1  311   1.913   0.779   0.431
   90SOL    HW2  312   1.843   0.742   0.302
   91SOL     OW  313   0.538   1.420   0.131
   91SOL    HW1  314   0.499   1.360   0.197
   91SOL    HW2  315   0.460   1.441   0.078
   92SOL     OW  316   1.760   1.267   0.645
   92SOL    HW1  317   1.840   1.210   0.656
   92SOL    HW2  318   1.801   1.351   0.623
   93SOL     OW  319   1.365   0.535   0.049
   93SOL    HW1  320   1.339   0.535   0.144
   93SOL    HW2  321   1.432   0.465   0.048
   94SOL     OW  322   0.515   0.293   0.327
   94SOL    HW1  323   0.517   0.226   0.257
   94SOL    HW2  324   0.492   0.371   0.275
   95SOL     OW  325   1.714   1.240   1.564
   95SOL    HW1  326   1.807   1.213   1.555
   95SOL    HW2  327   1.726   1.335   1.584
   96SOL     OW  328   1.008   1.303   1.344
   96SOL    HW1  329   0.926   1.281   1.393
   96SOL    HW2  330   1.076   1.262   1.401
   97SOL     OW  331   1.598   1.624   1.688
   97SOL    HW1  332   1.585   1.661   1.600
   97SOL    HW2  333   1.680   1.572   1.674
   98SOL     OW  334   1.169   1.279   1.128
   98SOL    HW1  335   1.102   1.295   1.198
   98SOL    HW2  336   1.122   1.307   1.047
   99SOL     OW  337   1.548   1.083   1.045
   99SOL    HW1  338   1.564   1.161   1.102
   99SOL    HW2  339   1.527   1.127   0.960
  100SOL     OW  340   5.286   0.125   1.396
  100SOL    HW1  341   5.289   0.095   1.303
  100SOL    HW2  342   5.380   0.146   1.412
  101SOL     OW  343   5.305   1.102   1.746
  101SOL    HW1  344   5.213   1.117   1.776
  101SOL    HW2  345   5.294   1.032   1.679
  102SOL     OW  346   0.755   1.073   0.422
  102SOL    HW1  347   0.739   1.030   0.508
  102SOL    HW2  348   0.837   1.029   0.392
  103SOL     OW  349   4.747   0.822   1.274
  103SOL    HW1  350   4.818   0.832   1.340
  103SOL    HW2  351   4.727   0.727   1.283
  104SOL     OW  352   1.308   0.372   1.281
  104SOL    HW1  353   1.327   0.455   1.329
  104SOL    HW2  354   1.217   0.390   1.248
  105SOL     OW  355   4.380   1.524   1.370
  105SOL    HW1  356   4.369   1.604   1.423
  105SOL    HW2  357   4.475   1.529   1.347
  106SOL     OW  358   4.637   1.139   0.511
  106SOL    HW1  359   4.669   1.186   0.432
  106SOL    HW2  360   4.612   1.054   0.472
  107SOL     OW  361   4.869   0.454   0.861
  107SOL    HW1  362   4.873   0.462   0.765
  107SOL    HW2  363   4.932   0.522   0.891
  108SOL     OW  364   1.237   1.364   0.452
  108SOL    HW1  365   1.291   1.438   0.487
  108SOL    HW2  366   1.147   1.392   0.477
  109SOL     OW  367   1.345   1.486   1.123
  109SOL    HW1  368   1.389   1.483   1.210
  109SOL    HW2  369   1.283   1.410   1.130
  110SOL     OW  370   1.504   0.652   0.454
  110SOL    HW1  371   1.493   0.712   0.530
  110SOL    HW2  372   1.456   0.700   0.384
  111SOL     OW  373   4.648   1.525   1.297
  111SOL    HW1  374   4.658   1.467   1.219
  111SOL    HW2  375   4.741   1.550   1.315
  112SOL     OW  376   4.819   0.717   1.645
  112SOL    HW1  377   4.862   0.761   1.570
  112SOL    HW2  378   4.882   0.646   1.664
  113SOL     OW  379   1.583   0.830   1.700
  113SOL    HW1  380   1.493   0.862   1.684
  113SOL    HW2  381   1.632   0.874   1.629
  114SOL     OW  382   5.308   4.304   1.626
  114SOL    HW1  383   5.289   4.357   1.547
  114SOL    HW2  384   5.221   4.301   1.671
  115SOL     OW  385   4.802   4.287   1.675
  115SOL    HW1  386   4.802   4.220   1.604
  115SOL    HW2  387   4.760   4.239   1.749
  116SOL     OW  388   4.979   0.867   1.105
  116SOL    HW1  389   4.996   0.963   1.106
  116SOL    HW2  390   4.890   0.862   1.145
  117SOL     OW  391   1.282   0.817   1.013
  117SOL    HW1  392   1.191   0.809   0.981
  117SOL    HW2  393   1.328   0.751   0.959
  118SOL     OW  394   1.265   0.530   0.294
  118SOL    HW1  395   1.256   0.457   0.357
  118SOL    HW2  396   1.209   0.599   0.334
  119SOL     OW  397   4.670   0.212   1.225
  119SOL    HW1  398   4.612   0.239   1.298
  119SOL    HW2  399   4.693   0.120   1.252
  120SOL     OW  400   4.383   1.277   1.251
  120SOL    HW1  401   4.415   1.218   1.321
  120SOL    HW2  402   4.375   1.362   1.297
  121SOL     OW  403   5.036   0.624   0.997
  121SOL    HW1  404   5.114   0.637   0.942
  121SOL    HW2  405   5.015   0.715   1.026
  122SOL     OW  406   1.752   0.983   1.865
  122SOL    HW1  407   1.691   0.920   1.824
  122SOL    HW2  408   1.697   1.019   1.937
  123SOL     OW  409   4.735   0.065   0.634
  123SOL    HW1  410   4.695   0.149   0.665
  123SOL    HW2  411   4.657   0.014   0.608
  124SOL     OW  412   1.618   0.442   0.318
  124SOL    HW1  413   1.646   0.382   0.389
  124SOL    HW2  414   1.571   0.513   0.366
  125SOL     OW  415   1.019   0.757   0.939
  125SOL    HW1  416   1.001   0.773   1.034
  125SOL    HW2  417   1.002   0.661   0.931
  126SOL     OW  418   5.336   1.604   1.705
  126SOL    HW1  419   5.329   1.625   1.610
  126SOL    HW2  420   5.349   1.508   1.704
  127SOL     OW  421   1.823   1.493   1.591
  127SOL    HW1  422   1.844   1.521   1.500
  127SOL    HW2  423   1.907   1.512   1.636
  128SOL     OW  424   4.738   0.923   1.808
  128SOL    HW1  425   4.804   0.941   1.877
  128SOL    HW2  426   4.776   0.848   1.760
  129SOL     OW  427   1.530   0.306   0.097
  129SOL    HW1  428   1.581   0.223   0.108
  129SOL    HW2  429   1.563   0.358   0.173
  130SOL     OW  430   3.457   2.955   3.062
  130SOL    HW1  431   3.489   2.863   3.072
  130SOL    HW2  432   3.478   2.973   2.969
  131SOL     OW  433   1.058   1.373   0.899
  131SOL    HW1  434   1.075   1.299   0.836
  131SOL    HW2  435   1.106   1.447   0.858
  132SOL     OW  436   4.658   0.804   0.925
  132SOL    HW1  437   4.733   0.799   0.862
  132SOL    HW2  438   4.671   0.724   0.977
  133SOL     OW  439   4.661   0.517   1.024
  133SOL    HW1  440   4.610   0.437   1.005
  133SOL    HW2  441   4.739   0.503   0.966
  134SOL     OW  442   5.489   0.363   1.650
  134SOL    HW1  443   5.437   0.395   1.726
  134SOL    HW2  444   5.571   0.414   1.658
  135SOL     OW  445   1.219   0.182   1.457
  135SOL    HW1  446   1.191   0.238   1.532
  135SOL    HW2  447   1.253   0.249   1.394
  136SOL     OW  448   0.096   1.293   0.113
  136SOL    HW1  449   0.070   1.242   0.034
  136SOL    HW2  450   0.073   1.228   0.183
  137SOL     OW  451   4.441   1.787   0.990
  137SOL    HW1  452   4.381   1.842   0.937
  137SOL    HW2  453   4.526   1.798   0.943
  138SOL     OW  454   4.819   1.560   0.933
  138SOL    HW1  455   4.888   1.627   0.954
  138SOL    HW2  456   4.871   1.496   0.880
  139SOL     OW  457   0.970   0.816   1.192
  139SOL    HW1  458   1.017   0.780   1.269
  139SOL    HW2  459   0.881   0.830   1.227
  140SOL     OW  460   4.441   0.631   1.151
  140SOL    HW1  461   4.521   0.594   1.110
  140SOL    HW2  462   4.427   0.572   1.226
  141SOL     OW  463   4.474   0.450   1.744
  141SOL    HW1  464   4.544   0.403   1.793
  141SOL    HW2  465   4.516   0.535   1.721
  142SOL     OW  466   1.334   0.940   1.628
  142SOL    HW1  467   1.374   1.030   1.633
  142SOL    HW2  468   1.242   0.962   1.607
  143SOL     OW  469   0.860   0.624   0.402
  143SOL    HW1  470   0.854   0.558   0.331
  143SOL    HW2  471   0.776   0.673   0.390
  144SOL     OW  472   1.567   0.695   1.152
  144SOL    HW1  473   1.542   0.638   1.226
  144SOL    HW2  474   1.664   0.683   1.151
  145SOL     OW  475   4.590   1.555   1.707
  145SOL    HW1  476   4.533   1.608   1.766
  145SOL    HW2  477   4.550   1.467   1.714
  146SOL     OW  478   5.120   0.470   1.205
  146SOL    HW1  479   5.056   0.396   1.205
  146SOL    HW2  480   5.088   0.523   1.129
  147SOL     OW  481   5.323   1.649   1.436
  147SOL    HW1  482   5.270   1.602   1.369
  147SOL    HW2  483   5.306   1.742   1.412
  148SOL     OW  484   4.494   1.102   1.432
  148SOL    HW1  485   4.496   1.059   1.520
  148SOL    HW2  486   4.484   1.025   1.373
  149SOL     OW  487   1.261   1.043   1.218
  149SOL    HW1  488   1.183   0.991   1.195
  149SOL    HW2  489   1.240   1.129   1.177
  150SOL     OW  490   1.345   0.827   0.278
  150SOL    HW1  491   1.259   0.806   0.320
  150SOL    HW2  492   1.325   0.817   0.184
  151SOL     OW  493   1.758   1.736   1.148
  151SOL    HW1  494   1.835   1.756   1.092
  151SOL    HW2  495   1.738   1.645   1.119
  152SOL     OW  496   1.273   1.741   1.060
  152SOL    HW1  497   1.359   1.786   1.061
  152SOL    HW2  498   1.296   1.653   1.095
  153SOL     OW  499   4.378   1.181   1.003
  153SOL    HW1  500   4.382   1.219   1.094
  153SOL    HW2  501   4.316   1.240   0.959
  154SOL     OW  502   5.077   1.672   1.770
  154SOL    HW1  503   5.041   1.710   1.688
  154SOL    HW2  504   5.172   1.662   1.749
  155SOL     OW  505   0.877   0.172   0.133
  155SOL    HW1  506   0.966   0.140   0.117
  155SOL    HW2  507   0.832   0.094   0.171
  156SOL     OW  508   1.729   0.213   0.466
  156SOL    HW1  509   1.796   0.219   0.393
  156SOL    HW2  510   1.746   0.123   0.500
  157SOL     OW  511   1.372   1.590   0.543
  157SOL    HW1  512   1.351   1.621   0.452
  157SOL    HW2  513   1.325   1.657   0.596
  158SOL     OW  514   4.444   1.725   1.867
  158SOL    HW1  515   4.405   1.656   1.924
  158SOL    HW2  516   4.511   1.766   1.925
  159SOL     OW  517   1.270   0.952   0.676
  159SOL    HW1  518   1.350   0.896   0.681
  159SOL    HW2  519   1.306   1.030   0.629
  160SOL     OW  520   5.097   1.255   1.454
  160SOL    HW1  521   5.084   1.315   1.531
  160SOL    HW2  522   5.018   1.274   1.401
  161SOL     OW  523   0.666   1.643   0.203
  161SOL    HW1  524   0.670   1.682   0.116
  161SOL    HW2  525   0.630   1.553   0.184
  162SOL     OW  526   1.617   1.712   1.414
  162SOL    HW1  527   1.662   1.720   1.329
  162SOL    HW2  528   1.637   1.799   1.455
  163SOL     OW  529   1.822   0.208   1.021
  163SOL    HW1  530   1.839   0.128   0.968
  163SOL    HW2  531   1.752   0.251   0.967
  164SOL     OW  532   4.619   0.292   0.724
  164SOL    HW1  533   4.531   0.325   0.698
  164SOL    HW2  534   4.610   0.290   0.821
  165SOL     OW  535   1.216   1.599   0.058
  165SOL    HW1  536   1.204   1.507   0.088
  165SOL    HW2  537   1.196   1.593  -0.036
  166SOL     OW  538   5.143   1.008   1.368
  166SOL    HW1  539   5.137   1.037   1.276
  166SOL    HW2  540   5.128   1.094   1.414
  167SOL     OW  541   0.978   0.958   0.329
  167SOL    HW1  542   1.004   0.958   0.234
  167SOL    HW2  543   1.028   0.882   0.362
  168SOL     OW  544   1.487   1.672   0.081
  168SOL    HW1  545   1.393   1.645   0.075
  168SOL    HW2  546   1.506   1.694  -0.013
  169SOL     OW  547   4.684   1.295   1.500
  169SOL    HW1  548   4.667   1.370   1.442
  169SOL    HW2  549   4.623   1.227   1.466
  170SOL     OW  550   1.607   1.294   1.208
  170SOL    HW1  551   1.695   1.286   1.250
  170SOL    HW2  552   1.558   1.349   1.272
  171SOL     OW  553   1.083   1.140   0.768
  171SOL    HW1  554   1.006   1.088   0.796
  171SOL    HW2  555   1.143   1.072   0.733
  172SOL     OW  556   1.060   0.241   0.970
  172SOL    HW1  557   1.056   0.181   0.893
  172SOL    HW2  558   1.039   0.178   1.041
  173SOL     OW  559   0.609   1.490   0.552
  173SOL    HW1  560   0.650   1.439   0.479
  173SOL    HW2  561   0.514   1.483   0.532
  174SOL     OW  562   1.870   0.329   1.499
  174SOL    HW1  563   1.905   0.414   1.466
  174SOL    HW2  564   1.846   0.284   1.416
  175SOL     OW  565   0.351   1.308   0.299
  175SOL    HW1  566   0.269   1.314   0.247
  175SOL    HW2  567   0.340   1.377   0.367
  176SOL     OW  568   4.509   0.980   1.681
  176SOL    HW1  569   4.465   1.045   1.737
  176SOL    HW2  570   4.595   0.969   1.728
  177SOL     OW  571   5.063   0.261   1.470
  177SOL    HW1  572   5.142   0.212   1.439
  177SOL    HW2  573   5.083   0.270   1.565
  178SOL     OW  574   6.469   2.497   3.026
  178SOL    HW1  575   6.495   2.490   2.933
  178SOL    HW2  576   6.516   2.577   3.055
  179SOL     OW  577   1.464   0.858   1.394
  179SOL    HW1  578   1.406   0.889   1.466
  179SOL    HW2  579   1.550   0.893   1.423
  180SOL     OW  580   4.413   0.204   0.442
  180SOL    HW1  581   4.466   0.235   0.365
  180SOL    HW2  582   4.462   0.127   0.474
  181SOL     OW  583   1.187   1.356   0.174
  181SOL    HW1  584   1.090   1.345   0.170
  181SOL    HW2  585   1.204   1.346   0.270
  182SOL     OW  586   4.966   0.814   1.437
  182SOL    HW1  587   5.020   0.893   1.419
  182SOL    HW2  588   5.033   0.744   1.432
  183SOL     OW  589   1.518   1.857   1.063
  183SOL    HW1  590   1.551   1.912   0.990
  183SOL    HW2  591   1.600   1.818   1.098
  184SOL     OW  592   5.040   0.555   1.673
  184SOL    HW1  593   5.105   0.607   1.724
  184SOL    HW2  594   5.059   0.463   1.701
  185SOL     OW  595   1.448   1.182   1.625
  185SOL    HW1  596   1.438   1.214   1.717
  185SOL    HW2  597   1.538   1.213   1.603
  186SOL     OW  598   4.713   1.776   1.614
  186SOL    HW1  599   4.626   1.818   1.600
  186SOL    HW2  600   4.685   1.686   1.642
  187SOL     OW  601   1.225   0.309   0.445
  187SOL    HW1  602   1.305   0.253   0.449
  187SOL    HW2  603   1.231   0.356   0.531
  188SOL     OW  604   4.853   0.779   0.742
  188SOL    HW1  605   4.920   0.842   0.710
  188SOL    HW2  606   4.817   0.743   0.659
  189SOL     OW  607   1.689   0.972   1.491
  189SOL    HW1  608   1.686   1.067   1.516
  189SOL    HW2  609   1.782   0.962   1.465
  190SOL     OW  610   0.915   1.356   0.155
  190SOL    HW1  611   0.860   1.359   0.235
  190SOL    HW2  612   0.853   1.322   0.090
  191SOL     OW  613   4.993   1.758   0.964
  191SOL    HW1  614   4.969   1.853   0.960
  191SOL    HW2  615   5.089   1.759   0.952
  192SOL     OW  616   0.877   0.992   0.883
  192SOL    HW1  617   0.923   0.908   0.900
  192SOL    HW2  618   0.838   1.013   0.969
  193SOL     OW  619   1.060   0.927   0.072
  193SOL    HW1  620   0.995   0.918  -0.001
  193SOL    HW2  621   1.136   0.877   0.039
  194SOL     OW  622   1.850   1.565   0.796
  194SOL    HW1  623   1.767   1.584   0.748
  194SOL    HW2  624   1.816   1.520   0.876
  195SOL     OW  625   4.626   1.265   1.885
  195SOL    HW1  626   4.545   1.285   1.835
  195SOL    HW2  627   4.598   1.276   1.978
  196SOL     OW  628   4.430   1.324   0.574
  196SOL    HW1  629   4.351   1.280   0.611
  196SOL    HW2  630   4.486   1.248   0.551
  197SOL     OW  631   5.049   1.418   1.659
  197SOL    HW1  632   4.966   1.374   1.688
  197SOL    HW2  633   5.044   1.504   1.703
  198SOL     OW  634   1.804   0.177   1.289
  198SOL    HW1  635   1.716   0.135   1.288
  198SOL    HW2  636   1.817   0.193   1.193
  199SOL     OW  637   0.489   0.413   0.581
  199SOL    HW1  638   0.504   0.366   0.497
  199SOL    HW2  639   0.419   0.361   0.624
  200SOL     OW  640   1.716   1.492   1.034
  200SOL    HW1  641   1.633   1.491   0.982
  200SOL    HW2  642   1.699   1.417   1.094
  201SOL     OW  643   4.697   0.557   1.301
  201SOL    HW1  644   4.751   0.498   1.359
  201SOL    HW2  645   4.713   0.521   1.213
  202SOL     OW  646   0.814   1.639   0.655
  202SOL    HW1  647   0.808   1.723   0.607
  202SOL    HW2  648   0.734   1.591   0.624
  203SOL     OW  649   1.467   0.256   1.087
  203SOL    HW1  650   1.498   0.170   1.119
  203SOL    HW2  651   1.419   0.291   1.165
  204SOL     OW  652   0.980   0.037   1.136
  204SOL    HW1  653   0.901   0.018   1.081
  204SOL    HW2  654   1.016  -0.053   1.148
  205SOL     OW  655   0.775   1.340   0.391
  205SOL    HW1  656   0.765   1.243   0.403
  205SOL    HW2  657   0.856   1.359   0.441
  206SOL     OW  658   4.927   1.560   1.333
  206SOL    HW1  659   4.940   1.623   1.406
  206SOL    HW2  660   5.016   1.558   1.294
  207SOL     OW  661   1.357   0.047   0.194
  207SOL    HW1  662   1.402   0.063   0.110
  207SOL    HW2  663   1.278   0.103   0.186
  208SOL     OW  664   1.250   0.463   0.666
  208SOL    HW1  665   1.206   0.551   0.669
  208SOL    HW2  666   1.253   0.439   0.761
  209SOL     OW  667   1.627   0.312   0.855
  209SOL    HW1  668   1.561   0.304   0.926
  209SOL    HW2  669   1.583   0.373   0.791
  210SOL     OW  670   4.367   1.101   0.291
  210SOL    HW1  671   4.453   1.053   0.288
  210SOL    HW2  672   4.305   1.029   0.313
  211SOL     OW  673   0.897   1.686   0.342
  211SOL    HW1  674   0.812   1.663   0.298
  211SOL    HW2  675   0.870   1.757   0.403
  212SOL     OW  676   4.523   0.709   2.026
  212SOL    HW1  677   4.521   0.627   2.080
  212SOL    HW2  678   4.443   0.699   1.973
  213SOL     OW  679   4.551   0.254   2.851
  213SOL    HW1  680   4.545   0.223   2.943
  213SOL    HW2  681   4.478   0.205   2.809
  214SOL     OW  682   4.362   0.404   2.571
  214SOL    HW1  683   4.329   0.453   2.649
  214SOL    HW2  684   4.282   0.404   2.514
  215SOL     OW  685   4.919   1.289   3.053
  215SOL    HW1  686   4.832   1.306   3.011
  215SOL    HW2  687   4.940   1.377   3.089
  216SOL     OW  688   5.925   1.510   2.548
  216SOL    HW1  689   5.881   1.466   2.624
  216SOL    HW2  690   5.852   1.521   2.485
  217SOL     OW  691   5.463   0.699   2.534
  217SOL    HW1  692   5.513   0.779   2.508
  217SOL    HW2  693   5.422   0.726   2.617
  218SOL     OW  694   1.827   0.592   2.055
  218SOL    HW1  695   1.765   0.609   1.981
  218SOL    HW2  696   1.773   0.535   2.113
  219SOL     OW  697   5.076   1.121   2.899
  219SOL    HW1  698   5.015   1.157   2.967
  219SOL    HW2  699   5.118   1.204   2.871
  220SOL     OW  700   5.005   0.956   2.517
  220SOL    HW1  701   5.081   0.971   2.576
  220SOL    HW2  702   4.946   1.031   2.540
  221SOL     OW  703   4.688   1.394   2.945
  221SOL    HW1  704   4.594   1.381   2.923
  221SOL    HW2  705   4.720   1.452   2.873
  222SOL     OW  706   3.632   3.691   0.110
  222SOL    HW1  707   3.703   3.753   0.135
  222SOL    HW2  708   3.559   3.721   0.167
  223SOL     OW  709   5.890   0.506   2.573
  223SOL    HW1  710   5.802   0.482   2.538
  223SOL    HW2  711   5.884   0.603   2.568
  224SOL     OW  712   4.611   1.710   2.338
  224SOL    HW1  713   4.626   1.792   2.389
  224SOL    HW2  714   4.678   1.719   2.268
  225SOL     OW  715   4.683   1.456   2.383
  225SOL    HW1  716   4.657   1.550   2.376
  225SOL    HW2  717   4.611   1.420   2.438
  226SOL     OW  718   4.594   1.061   2.679
  226SOL    HW1  719   4.619   0.977   2.722
  226SOL    HW2  720   4.528   1.097   2.740
  227SOL     OW  721   2.771   3.984   0.174
  227SOL    HW1  722   2.767   3.942   0.261
  227SOL    HW2  723   2.797   4.074   0.199
  228SOL     OW  724   4.912   0.975   2.023
  228SOL    HW1  725   4.966   1.030   1.963
  228SOL    HW2  726   4.947   1.002   2.109
  229SOL     OW  727   3.717   2.170   0.382
  229SOL    HW1  728   3.704   2.262   0.349
  229SOL    HW2  729   3.807   2.152   0.354
  230SOL     OW  730   4.480   0.608   2.430
  230SOL    HW1  731   4.444   0.532   2.478
  230SOL    HW2  732   4.456   0.680   2.491
  231SOL     OW  733   1.852   1.724   2.198
  231SOL    HW1  734   1.934   1.720   2.251
  231SOL    HW2  735   1.851   1.818   2.173
  232SOL     OW  736   4.351   1.531   2.025
  232SOL    HW1  737   4.334   1.436   2.035
  232SOL    HW2  738   4.353   1.559   2.119
  233SOL     OW  739   6.043   0.955   2.530
  233SOL    HW1  740   6.136   0.928   2.523
  233SOL    HW2  741   6.031   1.011   2.451
  234SOL     OW  742   1.677   1.119   2.300
  234SOL    HW1  743   1.760   1.104   2.251
  234SOL    HW2  744   1.704   1.193   2.360
  235SOL     OW  745   4.976   1.363   2.653
  235SOL    HW1  746   4.924   1.283   2.631
  235SOL    HW2  747   4.981   1.407   2.566
  236SOL     OW  748   3.460   3.404   0.171
  236SOL    HW1  749   3.444   3.320   0.123
  236SOL    HW2  750   3.555   3.416   0.155
  237SOL     OW  751   5.209   0.079   2.457
  237SOL    HW1  752   5.237   0.153   2.400
  237SOL    HW2  753   5.120   0.059   2.422
  238SOL     OW  754   2.357   3.118   0.073
  238SOL    HW1  755   2.425   3.064   0.030
  238SOL    HW2  756   2.276   3.066   0.061
  239SOL     OW  757   1.555   1.065   2.057
  239SOL    HW1  758   1.484   1.004   2.086
  239SOL    HW2  759   1.595   1.089   2.142
  240SOL     OW  760   5.825   1.378   2.768
  240SOL    HW1  761   5.754   1.407   2.829
  240SOL    HW2  762   5.795   1.288   2.745
  241SOL     OW  763   5.948   1.855   2.401
  241SOL    HW1  764   5.940   1.788   2.330
  241SOL    HW2  765   5.970   1.801   2.478
  242SOL     OW  766   4.897   0.699   2.139
  242SOL    HW1  767   4.900   0.788   2.099
  242SOL    HW2  768   4.841   0.712   2.217
  243SOL     OW  769   5.606   0.424   2.791
  243SOL    HW1  770   5.519   0.384   2.810
  243SOL    HW2  771   5.665   0.368   2.845
  244SOL     OW  772   1.585   1.671   2.197
  244SOL    HW1  773   1.683   1.674   2.190
  244SOL    HW2  774   1.558   1.661   2.104
  245SOL     OW  775   2.992   2.609   0.238
  245SOL    HW1  776   2.960   2.586   0.327
  245SOL    HW2  777   2.913   2.590   0.183
  246SOL     OW  778   3.210   2.573   0.071
  246SOL    HW1  779   3.143   2.586   0.142
  246SOL    HW2  780   3.162   2.600  -0.007
  247SOL     OW  781   5.359   0.670   2.279
  247SOL    HW1  782   5.385   0.670   2.373
  247SOL    HW2  783   5.269   0.632   2.282
  248SOL     OW  784   4.427   0.748   2.672
  248SOL    HW1  785   4.515   0.765   2.708
  248SOL    HW2  786   4.373   0.811   2.723
  249SOL     OW  787   5.178   0.351   2.067
  249SOL    HW1  788   5.230   0.394   1.996
  249SOL    HW2  789   5.150   0.268   2.024
  250SOL     OW  790   5.733   1.148   2.417
  250SOL    HW1  791   5.819   1.152   2.372
  250SOL    HW2  792   5.680   1.212   2.366
  251SOL     OW  793   4.930   0.252   2.779
  251SOL    HW1  794   4.882   0.241   2.863
  251SOL    HW2  795   4.903   0.341   2.751
  252SOL     OW  796   5.340   1.450   2.337
  252SOL    HW1  797   5.316   1.524   2.277
  252SOL    HW2  798   5.320   1.489   2.424
  253SOL     OW  799   4.716   1.805   2.730
  253SOL    HW1  800   4.751   1.714   2.742
  253SOL    HW2  801   4.795   1.859   2.746
  254SOL     OW  802   6.136   1.058   2.772
  254SOL    HW1  803   6.087   1.044   2.690
  254SOL    HW2  804   6.063   1.058   2.838
  255SOL     OW  805   3.407   3.742   0.266
  255SOL    HW1  806   3.444   3.678   0.330
  255SOL    HW2  807   3.340   3.688   0.220
  256SOL     OW  808   4.634   0.937   2.124
  256SOL    HW1  809   4.709   0.955   2.064
  256SOL    HW2  810   4.599   0.854   2.086
  257SOL     OW  811   5.838   0.782   2.570
  257SOL    HW1  812   5.816   0.764   2.663
  257SOL    HW2  813   5.910   0.848   2.576
  258SOL     OW  814   5.498   1.773   2.090
  258SOL    HW1  815   5.417   1.741   2.132
  258SOL    HW2  816   5.513   1.708   2.020
  259SOL     OW  817   1.640   1.390   1.952
  259SOL    HW1  818   1.605   1.480   1.948
  259SOL    HW2  819   1.564   1.338   1.924
  260SOL     OW  820   4.829   1.735   2.173
  260SOL    HW1  821   4.879   1.791   2.235
  260SOL    HW2  822   4.899   1.683   2.130
  261SOL     OW  823   5.778   0.174   2.253
  261SOL    HW1  824   5.834   0.112   2.204
  261SOL    HW2  825   5.798   0.151   2.345
  262SOL     OW  826   2.381   3.933   0.092
  262SOL    HW1  827   2.446   3.860   0.095
  262SOL    HW2  828   2.360   3.937  -0.004
  263SOL     OW  829   5.311   1.714   2.762
  263SOL    HW1  830   5.402   1.686   2.784
  263SOL    HW2  831   5.288   1.654   2.690
  264SOL     OW  832   4.742   0.665   2.362
  264SOL    HW1  833   4.768   0.571   2.373
  264SOL    HW2  834   4.646   0.660   2.376
  265SOL     OW  835   5.083   0.124   1.949
  265SOL    HW1  836   5.083   0.058   2.021
  265SOL    HW2  837   5.077   0.063   1.873
  266SOL     OW  838   5.221   1.530   3.062
  266SOL    HW1  839   5.211   1.481   2.978
  266SOL    HW2  840   5.294   1.483   3.106
  267SOL     OW  841   3.528   2.787   0.211
  267SOL    HW1  842   3.603   2.763   0.269
  267SOL    HW2  843   3.542   2.883   0.200
  268SOL     OW  844   5.185   1.367   2.836
  268SOL    HW1  845   5.263   1.362   2.776
  268SOL    HW2  846   5.112   1.378   2.773
  269SOL     OW  847   5.258   0.521   2.762
  269SOL    HW1  848   5.234   0.507   2.667
  269SOL    HW2  849   5.296   0.434   2.785
  270SOL     OW  850   4.956   0.035   2.358
  270SOL    HW1  851   4.886   0.029   2.426
  270SOL    HW2  852   4.922   0.104   2.299
  271SOL     OW  853   1.418   1.236   1.891
  271SOL    HW1  854   1.459   1.172   1.952
  271SOL    HW2  855   1.335   1.258   1.936
  272SOL     OW  856   4.698   0.083   2.046
  272SOL    HW1  857   4.772   0.124   2.093
  272SOL    HW2  858   4.637   0.063   2.120
  273SOL     OW  859   5.295   0.293   2.311
  273SOL    HW1  860   5.258   0.314   2.224
  273SOL    HW2  861   5.391   0.307   2.298
  274SOL     OW  862   3.270   2.884   0.216
  274SOL    HW1  863   3.271   2.916   0.306
  274SOL    HW2  864   3.354   2.835   0.212
  275SOL     OW  865   5.515   1.560   2.595
  275SOL    HW1  866   5.534   1.629   2.529
  275SOL    HW2  867   5.555   1.600   2.675
  276SOL     OW  868   4.822   1.156   2.557
  276SOL    HW1  869   4.742   1.128   2.607
  276SOL    HW2  870   4.787   1.152   2.465
  277SOL     OW  871   5.572   1.790   2.453
  277SOL    HW1  872   5.617   1.860   2.402
  277SOL    HW2  873   5.511   1.843   2.507
  278SOL     OW  874   5.338   0.465   1.865
  278SOL    HW1  875   5.307   0.553   1.835
  278SOL    HW2  876   5.395   0.489   1.941
  279SOL     OW  877   2.288   2.669   0.209
  279SOL    HW1  878   2.381   2.695   0.215
  279SOL    HW2  879   2.266   2.643   0.300
  280SOL     OW  880   4.825   0.210   3.027
  280SOL    HW1  881   4.852   0.124   3.063
  280SOL    HW2  882   4.731   0.213   3.052
  281SOL     OW  883   5.200   0.471   2.502
  281SOL    HW1  884   5.144   0.514   2.436
  281SOL    HW2  885   5.237   0.398   2.450
  282SOL     OW  886   5.320   0.057   2.694
  282SOL    HW1  887   5.280   0.068   2.604
  282SOL    HW2  888   5.382  -0.015   2.679
  283SOL     OW  889   5.741   1.123   2.712
  283SOL    HW1  890   5.679   1.052   2.736
  283SOL    HW2  891   5.730   1.130   2.616
  284SOL     OW  892   5.754   0.677   2.814
  284SOL    HW1  893   5.705   0.593   2.812
  284SOL    HW2  894   5.821   0.661   2.883
  285SOL     OW  895   1.845   0.803   2.229
  285SOL    HW1  896   1.905   0.765   2.296
  285SOL    HW2  897   1.844   0.733   2.161
  286SOL     OW  898   4.830   1.434   2.005
  286SOL    HW1  899   4.770   1.402   2.073
  286SOL    HW2  900   4.787   1.400   1.925
  287SOL     OW  901   1.765   1.299   2.470
  287SOL    HW1  902   1.856   1.303   2.504
  287SOL    HW2  903   1.724   1.381   2.502
  288SOL     OW  904   5.687   0.566   1.918
  288SOL    HW1  905   5.612   0.554   1.981
  288SOL    HW2  906   5.755   0.510   1.960
  289SOL     OW  907   4.889   0.233   2.175
  289SOL    HW1  908   4.967   0.230   2.118
  289SOL    HW2  909   4.848   0.318   2.148
  290SOL     OW  910   3.238   3.559   0.158
  290SOL    HW1  911   3.164   3.514   0.203
  290SOL    HW2  912   3.310   3.494   0.164
  291SOL     OW  913   5.449   1.238   2.948
  291SOL    HW1  914   5.357   1.255   2.971
  291SOL    HW2  915   5.450   1.266   2.854
  292SOL     OW  916   5.911   1.072   2.930
  292SOL    HW1  917   5.889   1.141   2.995
  292SOL    HW2  918   5.847   1.089   2.859
  293SOL     OW  919   3.115   2.263   0.234
  293SOL    HW1  920   3.114   2.259   0.137
  293SOL    HW2  921   3.204   2.301   0.250
  294SOL     OW  922   5.045   1.038   2.256
  294SOL    HW1  923   5.024   1.002   2.344
  294SOL    HW2  924   5.130   0.993   2.235
  295SOL     OW  925   4.754   0.808   3.054
  295SOL    HW1  926   4.806   0.858   3.120
  295SOL    HW2  927   4.738   0.725   3.101
  296SOL     OW  928   3.473   2.547   0.101
  296SOL    HW1  929   3.495   2.636   0.137
  296SOL    HW2  930   3.377   2.559   0.083
  297SOL     OW  931   2.206   3.714   0.142
  297SOL    HW1  932   2.260   3.794   0.134
  297SOL    HW2  933   2.248   3.669   0.217
  298SOL     OW  934   4.710   1.125   2.312
  298SOL    HW1  935   4.678   1.195   2.253
  298SOL    HW2  936   4.690   1.046   2.260
  299SOL     OW  937   4.857   0.522   2.764
  299SOL    HW1  938   4.856   0.590   2.694
  299SOL    HW2  939   4.934   0.550   2.816
  300SOL     OW  940   5.584   1.348   2.267
  300SOL    HW1  941   5.638   1.423   2.298
  300SOL    HW2  942   5.497   1.372   2.302
  301SOL     OW  943   5.643   1.450   2.957
  301SOL    HW1  944   5.694   1.469   3.038
  301SOL    HW2  945   5.583   1.379   2.985
  302SOL     OW  946   5.943   0.681   2.328
  302SOL    HW1  947   5.896   0.729   2.398
  302SOL    HW2  948   6.007   0.747   2.296
  303SOL     OW  949   2.530   3.703   0.108
  303SOL    HW1  950   2.522   3.648   0.027
  303SOL    HW2  951   2.627   3.712   0.114
  304SOL     OW  952   5.003   0.853   2.912
  304SOL    HW1  953   5.032   0.946   2.911
  304SOL    HW2  954   4.916   0.859   2.954
  305SOL     OW  955   5.604   0.902   2.814
  305SOL    HW1  956   5.515   0.864   2.802
  305SOL    HW2  957   5.660   0.822   2.817
  306SOL     OW  958   5.483   0.523   2.089
  306SOL    HW1  959   5.515   0.456   2.153
  306SOL    HW2  960   5.440   0.586   2.150
  307SOL     OW  961   2.402   2.364   0.057
  307SOL    HW1  962   2.324   2.392   0.109
  307SOL    HW2  963   2.419   2.276   0.095
  308SOL     OW  964   4.409   1.356   2.997
  308SOL    HW1  965   4.421   1.292   3.070
  308SOL    HW2  966   4.381   1.434   3.047
  309SOL     OW  967   5.062   0.593   2.934
  309SOL    HW1  968   5.135   0.571   2.872
  309SOL    HW2  969   5.050   0.689   2.918
  310SOL     OW  970   4.748   0.048   2.542
  310SOL    HW1  971   4.722   0.140   2.561
  310SOL    HW2  972   4.661   0.006   2.527
  311SOL     OW  973   1.674   0.444   2.219
  311SOL    HW1  974   1.707   0.383   2.287
  311SOL    HW2  975   1.644   0.521   2.271
  312SOL     OW  976   5.359   0.772   2.795
  312SOL    HW1  977   5.343   0.788   2.891
  312SOL    HW2  978   5.325   0.681   2.786
  313SOL     OW  979   1.502   0.356   2.034
  313SOL    HW1  980   1.461   0.294   2.096
  313SOL    HW2  981   1.571   0.395   2.092
  314SOL     OW  982   5.608   0.826   1.883
  314SOL    HW1  983   5.646   0.736   1.888
  314SOL    HW2  984   5.637   0.856   1.796
  315SOL     OW  985   5.412   1.333   2.696
  315SOL    HW1  986   5.422   1.259   2.633
  315SOL    HW2  987   5.454   1.408   2.648
  316SOL     OW  988   4.666   0.820   2.785
  316SOL    HW1  989   4.740   0.790   2.730
  316SOL    HW2  990   4.700   0.809   2.875
  317SOL     OW  991   4.663   0.483   2.948
  317SOL    HW1  992   4.625   0.400   2.912
  317SOL    HW2  993   4.728   0.504   2.879
  318SOL     OW  994   3.364   2.357   0.275
  318SOL    HW1  995   3.390   2.410   0.353
  318SOL    HW2  996   3.398   2.413   0.204
  319SOL     OW  997   4.312   1.272   2.116
  319SOL    HW1  998   4.217   1.284   2.133
  319SOL    HW2  999   4.325   1.178   2.140
  320SOL     OW 1000   4.493   1.799   2.892
  320SOL    HW1 1001   4.423   1.844   2.842
  320SOL    HW2 1002   4.567   1.800   2.829
  321SOL     OW 1003   4.834   1.561   2.779
  321SOL    HW1 1004   4.910   1.616   2.807
  321SOL    HW2 1005   4.880   1.488   2.734
  322SOL     OW 1006   5.309   0.807   3.057
  322SOL    HW1 1007   5.366   0.778   3.131
  322SOL    HW2 1008   5.222   0.802   3.099
  323SOL     OW 1009   4.403   0.544   3.003
  323SOL    HW1 1010   4.498   0.531   2.986
  323SOL    HW2 1011   4.399   0.532   3.100
  324SOL     OW 1012   5.111   0.560   2.248
  324SOL    HW1 1013   5.119   0.488   2.183
  324SOL    HW2 1014   5.037   0.612   2.212
  325SOL     OW 1015   5.949   0.634   3.003
  325SOL    HW1 1016   5.948   0.563   3.069
  325SOL    HW2 1017   6.043   0.633   2.977
  326SOL     OW 1018   2.786   2.591   0.063
  326SOL    HW1 1019   2.744   2.511   0.024
  326SOL    HW2 1020   2.820   2.637  -0.016
  327SOL     OW 1021   3.072   3.874   0.217
  327SOL    HW1 1022   3.065   3.828   0.132
  327SOL    HW2 1023   3.066   3.968   0.192
  328SOL     OW 1024   4.771   0.458   2.081
  328SOL    HW1 1025   4.815   0.544   2.090
  328SOL    HW2 1026   4.684   0.475   2.123
  329SOL     OW 1027   2.282   3.361   0.150
  329SOL    HW1 1028   2.222   3.331   0.221
  329SOL    HW2 1029   2.319   3.276   0.119
  330SOL     OW 1030   5.594   1.034   3.055
  330SOL    HW1 1031   5.606   0.978   2.977
  330SOL    HW2 1032   5.540   1.106   3.017
  331SOL     OW 1033   5.679   0.915   2.136
  331SOL    HW1 1034   5.615   0.887   2.202
  331SOL    HW2 1035   5.644   0.878   2.053
  332SOL     OW 1036   6.063   1.727   2.986
  332SOL    HW1 1037   6.143   1.760   2.943
  332SOL    HW2 1038   6.064   1.633   2.962
  333SOL     OW 1039   5.583   1.681   2.828
  333SOL    HW1 1040   5.661   1.738   2.844
  333SOL    HW2 1041   5.604   1.603   2.882
  334SOL     OW 1042   4.375   1.160   2.810
  334SOL    HW1 1043   4.381   1.234   2.874
  334SOL    HW2 1044   4.307   1.191   2.748
  335SOL     OW 1045   1.797   0.254   2.382
  335SOL    HW1 1046   1.816   0.201   2.303
  335SOL    HW2 1047   1.835   0.199   2.453
  336SOL     OW 1048   5.726   1.567   2.358
  336SOL    HW1 1049   5.791   1.604   2.295
  336SOL    HW2 1050   5.672   1.645   2.380
  337SOL     OW 1051   5.615   0.912   2.469
  337SOL    HW1 1052   5.695   0.864   2.499
  337SOL    HW2 1053   5.654   0.997   2.440
  338SOL     OW 1054   3.007   3.453   0.257
  338SOL    HW1 1055   2.968   3.413   0.337
  338SOL    HW2 1056   2.939   3.517   0.232
  339SOL     OW 1057   5.035   1.606   2.030
  339SOL    HW1 1058   5.042   1.638   1.938
  339SOL    HW2 1059   4.963   1.539   2.022
  340SOL     OW 1060   3.831   3.862   0.198
  340SOL    HW1 1061   3.867   3.881   0.110
  340SOL    HW2 1062   3.840   3.949   0.243
  341SOL     OW 1063   6.164   0.195   2.833
  341SOL    HW1 1064   6.202   0.154   2.753
  341SOL    HW2 1065   6.080   0.231   2.797
  342SOL     OW 1066   4.632   0.295   2.591
  342SOL    HW1 1067   4.548   0.338   2.568
  342SOL    HW2 1068   4.623   0.285   2.687
  343SOL     OW 1069   5.549   1.591   1.895
  343SOL    HW1 1070   5.531   1.501   1.927
  343SOL    HW2 1071   5.481   1.604   1.827
  344SOL     OW 1072   2.994   3.208   0.131
  344SOL    HW1 1073   3.078   3.189   0.088
  344SOL    HW2 1074   3.008   3.296   0.169
  345SOL     OW 1075   5.271   0.914   2.192
  345SOL    HW1 1076   5.299   0.915   2.099
  345SOL    HW2 1077   5.308   0.830   2.224
  346SOL     OW 1078   1.489   1.649   1.936
  346SOL    HW1 1079   1.396   1.628   1.916
  346SOL    HW2 1080   1.528   1.650   1.846
  347SOL     OW 1081   2.408   3.546   0.299
  347SOL    HW1 1082   2.460   3.602   0.239
  347SOL    HW2 1083   2.370   3.480   0.238
  348SOL     OW 1084   3.716   3.437   0.058
  348SOL    HW1 1085   3.813   3.438   0.060
  348SOL    HW2 1086   3.695   3.531   0.075
  349SOL     OW 1087   5.421   1.105   2.555
  349SOL    HW1 1088   5.343   1.060   2.594
  349SOL    HW2 1089   5.471   1.031   2.517
  350SOL     OW 1090   5.369   0.281   2.844
  350SOL    HW1 1091   5.355   0.208   2.780
  350SOL    HW2 1092   5.352   0.234   2.928
  351SOL     OW 1093   4.965   1.482   2.408
  351SOL    HW1 1094   5.003   1.425   2.339
  351SOL    HW2 1095   4.869   1.473   2.392
  352SOL     OW 1096   3.855   2.599   0.126
  352SOL    HW1 1097   3.946   2.634   0.140
  352SOL    HW2 1098   3.875   2.508   0.096
  353SOL     OW 1099   4.592   1.327   2.154
  353SOL    HW1 1100   4.494   1.326   2.155
  353SOL    HW2 1101   4.613   1.383   2.231
  354SOL     OW 1102   2.859   2.311   0.294
  354SOL    HW1 1103   2.952   2.295   0.267
  354SOL    HW2 1104   2.871   2.385   0.357
  355SOL     OW 1105   4.210   0.458   1.758
  355SOL    HW1 1106   4.205   0.516   1.838
  355SOL    HW2 1107   4.307   0.444   1.755
  356SOL     OW 1108   3.562   3.056   0.197
  356SOL    HW1 1109   3.509   3.106   0.132
  356SOL    HW2 1110   3.652   3.067   0.162
  357SOL     OW 1111   4.381   0.211   2.157
  357SOL    HW1 1112   4.361   0.170   2.071
  357SOL    HW2 1113   4.444   0.146   2.194
  358SOL     OW 1114   5.491   1.338   1.995
  358SOL    HW1 1115   5.394   1.331   2.004
  358SOL    HW2 1116   5.520   1.334   2.088
  359SOL     OW 1117   2.767   3.073   0.169
  359SOL    HW1 1118   2.839   3.137   0.153
  359SOL    HW2 1119   2.820   2.990   0.169
  360SOL     OW 1120   5.829   1.816   2.868
  360SOL    HW1 1121   5.858   1.893   2.817
  360SOL    HW2 1122   5.914   1.775   2.893
  361SOL     OW 1123   3.804   3.051   0.067
  361SOL    HW1 1124   3.800   2.965   0.021
  361SOL    HW2 1125   3.795   3.114  -0.007
  362SOL     OW 1126   5.564   0.348   2.282
  362SOL    HW1 1127   5.636   0.283   2.272
  362SOL    HW2 1128   5.587   0.390   2.367
  363SOL     OW 1129   4.854   0.741   2.599
  363SOL    HW1 1130   4.916   0.812   2.574
  363SOL    HW2 1131   4.815   0.719   2.512
  364SOL     OW 1132   3.977   3.068   0.293
  364SOL    HW1 1133   3.953   3.156   0.328
  364SOL    HW2 1134   3.930   3.067   0.207
  365SOL     OW 1135   5.202   1.361   2.001
  365SOL    HW1 1136   5.163   1.337   2.088
  365SOL    HW2 1137   5.169   1.451   1.990
  366SOL     OW 1138   5.038   1.731   2.823
  366SOL    HW1 1139   5.018   1.821   2.792
  366SOL    HW2 1140   5.134   1.726   2.813
  367SOL     OW 1141   5.212   0.987   2.694
  367SOL    HW1 1142   5.255   0.910   2.734
  367SOL    HW2 1143   5.167   1.029   2.770
  368SOL     OW 1144   5.356   0.907   1.935
  368SOL    HW1 1145   5.347   0.989   1.883
  368SOL    HW2 1146   5.450   0.882   1.919
  369SOL     OW 1147   6.144   1.613   2.675
  369SOL    HW1 1148   6.071   1.587   2.615
  369SOL    HW2 1149   6.126   1.556   2.752
  370SOL     OW 1150   4.430   1.364   2.473
  370SOL    HW1 1151   4.356   1.364   2.534
  370SOL    HW2 1152   4.438   1.268   2.453
  371SOL     OW 1153   3.926   2.349   0.033
  371SOL    HW1 1154   3.864   2.274   0.026
  371SOL    HW2 1155   3.959   2.355  -0.059
  372SOL     OW 1156   4.796   0.408   2.402
  372SOL    HW1 1157   4.841   0.334   2.360
  372SOL    HW2 1158   4.746   0.365   2.475
  373SOL     OW 1159   6.053   1.471   2.889
  373SOL    HW1 1160   5.973   1.431   2.849
  373SOL    HW2 1161   6.084   1.401   2.949
  374SOL     OW 1162   2.559   2.732   0.138
  374SOL    HW1 1163   2.648   2.693   0.137
  374SOL    HW2 1164   2.524   2.698   0.053
  375SOL     OW 1165   5.190   1.619   2.518
  375SOL    HW1 1166   5.188   1.705   2.473
  375SOL    HW2 1167   5.108   1.578   2.488
  376SOL     OW 1168   5.767   0.275   2.952
  376SOL    HW1 1169   5.789   0.186   2.982
  376SOL    HW2 1170   5.728   0.315   3.032
  377SOL     OW 1171   5.272   0.076   3.024
  377SOL    HW1 1172   5.194   0.064   2.968
  377SOL    HW2 1173   5.313  -0.012   3.019
  378SOL     OW 1174   5.103   1.306   2.247
  378SOL    HW1 1175   5.079   1.211   2.254
  378SOL    HW2 1176   5.187   1.310   2.296
  379SOL     OW 1177   2.801   3.720   0.087
  379SOL    HW1 1178   2.795   3.816   0.106
  379SOL    HW2 1179   2.891   3.714   0.051
  380SOL     OW 1180   1.426   0.031   1.896
  380SOL    HW1 1181   1.493   0.019   1.967
  380SOL    HW2 1182   1.344   0.023   1.945
  381SOL     OW 1183   5.618   0.472   2.522
  381SOL    HW1 1184   5.562   0.552   2.518
  381SOL    HW2 1185   5.610   0.447   2.616
  382SOL     OW 1186   5.935   0.292   2.733
  382SOL    HW1 1187   5.874   0.300   2.808
  382SOL    HW2 1188   5.921   0.377   2.685
  383SOL     OW 1189   4.385   1.020   2.212
  383SOL    HW1 1190   4.474   0.993   2.181
  383SOL    HW2 1191   4.401   1.041   2.306
  384SOL     OW 1192   5.257   1.670   2.190
  384SOL    HW1 1193   5.175   1.653   2.138
  384SOL    HW2 1194   5.230   1.740   2.251
  385SOL     OW 1195   0.250   2.624   0.111
  385SOL    HW1 1196   0.253   2.536   0.154
  385SOL    HW2 1197   0.303   2.612   0.032
  386SOL     OW 1198   4.538   2.129   1.029
  386SOL    HW1 1199   4.583   2.090   1.107
  386SOL    HW2 1200   4.445   2.115   1.054
  387SOL     OW 1201   4.311   2.191   0.734
  387SOL    HW1 1202   4.269   2.275   0.759
  387SOL    HW2 1203   4.275   2.173   0.645
  388SOL     OW 1204   4.837   3.089   1.223
  388SOL    HW1 1205   4.784   3.150   1.169
  388SOL    HW2 1206   4.814   3.117   1.313
  389SOL     OW 1207   1.575   3.355   0.724
  389SOL    HW1 1208   1.524   3.325   0.802
  389SOL    HW2 1209   1.505   3.356   0.656
  390SOL     OW 1210   1.145   2.569   0.679
  390SOL    HW1 1211   1.187   2.657   0.667
  390SOL    HW2 1212   1.098   2.582   0.763
  391SOL     OW 1213   1.735   2.521   0.230
  391SOL    HW1 1214   1.655   2.575   0.228
  391SOL    HW2 1215   1.701   2.436   0.264
  392SOL     OW 1216   5.040   2.970   1.098
  392SOL    HW1 1217   4.962   3.007   1.145
  392SOL    HW2 1218   5.074   3.051   1.055
  393SOL     OW 1219   5.247   2.576   1.777
  393SOL    HW1 1220   5.270   2.642   1.845
  393SOL    HW2 1221   5.248   2.632   1.697
  394SOL     OW 1222   0.705   2.822   0.674
  394SOL    HW1 1223   0.768   2.834   0.747
  394SOL    HW2 1224   0.630   2.878   0.702
  395SOL     OW 1225   5.087   3.019   1.867
  395SOL    HW1 1226   5.149   3.074   1.918
  395SOL    HW2 1227   5.055   3.083   1.801
  396SOL     OW 1228   4.686   3.253   1.055
  396SOL    HW1 1229   4.643   3.194   0.992
  396SOL    HW2 1230   4.736   3.313   0.997
  397SOL     OW 1231   1.437   3.495   1.377
  397SOL    HW1 1232   1.513   3.505   1.435
  397SOL    HW2 1233   1.367   3.468   1.440
  398SOL     OW 1234   4.795   2.235   1.464
  398SOL    HW1 1235   4.863   2.209   1.527
  398SOL    HW2 1236   4.718   2.181   1.493
  399SOL     OW 1237   1.565   2.306   0.748
  399SOL    HW1 1238   1.486   2.306   0.692
  399SOL    HW2 1239   1.550   2.385   0.802
  400SOL     OW 1240   4.503   3.575   0.472
  400SOL    HW1 1241   4.457   3.653   0.508
  400SOL    HW2 1242   4.587   3.612   0.441
  401SOL     OW 1243   5.486   3.186   1.702
  401SOL    HW1 1244   5.540   3.156   1.776
  401SOL    HW2 1245   5.426   3.109   1.690
  402SOL     OW 1246   4.609   3.327   0.487
  402SOL    HW1 1247   4.569   3.417   0.489
  402SOL    HW2 1248   4.557   3.280   0.556
  403SOL     OW 1249   4.597   2.891   0.866
  403SOL    HW1 1250   4.616   2.800   0.897
  403SOL    HW2 1251   4.531   2.922   0.931
  404SOL     OW 1252   4.895   3.742   1.360
  404SOL    HW1 1253   4.826   3.710   1.422
  404SOL    HW2 1254   4.948   3.799   1.418
  405SOL     OW 1255   0.571   2.836   0.254
  405SOL    HW1 1256   0.607   2.869   0.171
  405SOL    HW2 1257   0.633   2.875   0.320
  406SOL     OW 1258   1.683   1.952   1.531
  406SOL    HW1 1259   1.713   2.033   1.486
  406SOL    HW2 1260   1.618   1.987   1.593
  407SOL     OW 1261   4.460   2.430   0.499
  407SOL    HW1 1262   4.366   2.409   0.486
  407SOL    HW2 1263   4.457   2.474   0.586
  408SOL     OW 1264   1.844   3.541   0.295
  408SOL    HW1 1265   1.906   3.559   0.367
  408SOL    HW2 1266   1.862   3.617   0.236
  409SOL     OW 1267   4.209   3.366   0.132
  409SOL    HW1 1268   4.235   3.297   0.196
  409SOL    HW2 1269   4.269   3.439   0.155
  410SOL     OW 1270   1.722   2.766   0.695
  410SOL    HW1 1271   1.807   2.720   0.688
  410SOL    HW2 1272   1.717   2.815   0.610
  411SOL     OW 1273   1.716   2.909   0.466
  411SOL    HW1 1274   1.806   2.917   0.429
  411SOL    HW2 1275   1.706   2.997   0.508
  412SOL     OW 1276   4.450   2.676   1.554
  412SOL    HW1 1277   4.476   2.713   1.467
  412SOL    HW2 1278   4.467   2.754   1.612
  413SOL     OW 1279   0.618   3.216   0.727
  413SOL    HW1 1280   0.579   3.127   0.738
  413SOL    HW2 1281   0.595   3.233   0.633
  414SOL     OW 1282   1.433   3.065   1.360
  414SOL    HW1 1283   1.363   3.011   1.319
  414SOL    HW2 1284   1.423   3.047   1.454
  415SOL     OW 1285   0.827   1.885   0.522
  415SOL    HW1 1286   0.861   1.968   0.482
  415SOL    HW2 1287   0.730   1.901   0.521
  416SOL     OW 1288   4.521   2.780   1.309
  416SOL    HW1 1289   4.614   2.751   1.297
  416SOL    HW2 1290   4.490   2.782   1.218
  417SOL     OW 1291   1.573   2.799   0.263
  417SOL    HW1 1292   1.497   2.757   0.305
  417SOL    HW2 1293   1.622   2.836   0.339
  418SOL     OW 1294   1.263   3.751   1.662
  418SOL    HW1 1295   1.234   3.787   1.577
  418SOL    HW2 1296   1.259   3.655   1.646
  419SOL     OW 1297   4.776   2.172   1.805
  419SOL    HW1 1298   4.799   2.237   1.874
  419SOL    HW2 1299   4.684   2.197   1.785
  420SOL     OW 1300   1.444   3.276   0.951
  420SOL    HW1 1301   1.380   3.296   1.023
  420SOL    HW2 1302   1.420   3.183   0.931
  421SOL     OW 1303   1.627   3.613   0.606
  421SOL    HW1 1304   1.615   3.572   0.519
  421SOL    HW2 1305   1.615   3.538   0.666
  422SOL     OW 1306   0.611   2.576   0.345
  422SOL    HW1 1307   0.599   2.668   0.315
  422SOL    HW2 1308   0.545   2.569   0.417
  423SOL     OW 1309   1.276   2.290   0.948
  423SOL    HW1 1310   1.188   2.248   0.955
  423SOL    HW2 1311   1.330   2.231   1.004
  424SOL     OW 1312   1.585   3.498   0.363
  424SOL    HW1 1313   1.680   3.507   0.342
  424SOL    HW2 1314   1.549   3.478   0.275
  425SOL     OW 1315   5.144   2.458   1.419
  425SOL    HW1 1316   5.107   2.422   1.502
  425SOL    HW2 1317   5.113   2.394   1.352
  426SOL     OW 1318   1.371   2.327   1.657
  426SOL    HW1 1319   1.381   2.371   1.744
  426SOL    HW2 1320   1.430   2.251   1.666
  427SOL     OW 1321   5.275   2.761   1.560
  427SOL    HW1 1322   5.328   2.701   1.504
  427SOL    HW2 1323   5.228   2.812   1.491
  428SOL     OW 1324   1.008   2.250   1.196
  428SOL    HW1 1325   0.914   2.270   1.214
  428SOL    HW2 1326   1.004   2.215   1.106
  429SOL     OW 1327   1.096   2.556   0.412
  429SOL    HW1 1328   1.108   2.557   0.509
  429SOL    HW2 1329   1.007   2.516   0.404
  430SOL     OW 1330   4.451   2.577   0.732
  430SOL    HW1 1331   4.523   2.593   0.795
  430SOL    HW2 1332   4.436   2.667   0.697
  431SOL     OW 1333   4.499   3.791   1.685
  431SOL    HW1 1334   4.506   3.711   1.741
  431SOL    HW2 1335   4.403   3.809   1.694
  432SOL     OW 1336   0.902   2.270   0.160
  432SOL    HW1 1337   0.963   2.327   0.108
  432SOL    HW2 1338   0.917   2.182   0.120
  433SOL     OW 1339   1.669   2.444   1.859
  433SOL    HW1 1340   1.658   2.522   1.802
  433SOL    HW2 1341   1.698   2.375   1.796
  434SOL     OW 1342   1.365   3.051   0.606
  434SOL    HW1 1343   1.432   3.073   0.538
  434SOL    HW2 1344   1.291   3.104   0.573
  435SOL     OW 1345   4.883   2.009   0.956
  435SOL    HW1 1346   4.891   2.034   1.051
  435SOL    HW2 1347   4.877   2.098   0.915
  436SOL     OW 1348   0.958   3.342   0.476
  436SOL    HW1 1349   0.933   3.418   0.422
  436SOL    HW2 1350   0.909   3.360   0.559
  437SOL     OW 1351   4.656   3.636   0.868
  437SOL    HW1 1352   4.705   3.552   0.872
  437SOL    HW2 1353   4.724   3.701   0.896
  438SOL     OW 1354   1.813   2.884   0.927
  438SOL    HW1 1355   1.770   2.858   0.844
  438SOL    HW2 1356   1.735   2.906   0.982
  439SOL     OW 1357   1.240   3.409   1.543
  439SOL    HW1 1358   1.229   3.330   1.598
  439SOL    HW2 1359   1.170   3.395   1.476
  440SOL     OW 1360   0.303   2.828   0.281
  440SOL    HW1 1361   0.400   2.831   0.272
  440SOL    HW2 1362   0.282   2.748   0.229
  441SOL     OW 1363   1.484   2.640   0.691
  441SOL    HW1 1364   1.469   2.603   0.780
  441SOL    HW2 1365   1.570   2.686   0.701
  442SOL     OW 1366   4.799   3.190   1.718
  442SOL    HW1 1367   4.776   3.190   1.623
  442SOL    HW2 1368   4.720   3.149   1.757
  443SOL     OW 1369   1.123   3.655   0.233
  443SOL    HW1 1370   1.037   3.622   0.267
  443SOL    HW2 1371   1.185   3.611   0.292
  444SOL     OW 1372   4.573   2.092   1.534
  444SOL    HW1 1373   4.545   2.153   1.606
  444SOL    HW2 1374   4.530   2.009   1.564
  445SOL     OW 1375   1.662   3.220   0.162
  445SOL    HW1 1376   1.618   3.303   0.136
  445SOL    HW2 1377   1.596   3.153   0.135
  446SOL     OW 1378   0.438   3.619   0.331
  446SOL    HW1 1379   0.489   3.659   0.403
  446SOL    HW2 1380   0.507   3.570   0.283
  447SOL     OW 1381   1.392   1.956   0.478
  447SOL    HW1 1382   1.403   1.947   0.382
  447SOL    HW2 1383   1.479   1.926   0.510
  448SOL     OW 1384   4.501   3.663   1.217
  448SOL    HW1 1385   4.553   3.583   1.237
  448SOL    HW2 1386   4.457   3.638   1.134
  449SOL     OW 1387   0.905   3.564   0.890
  449SOL    HW1 1388   0.885   3.520   0.975
  449SOL    HW2 1389   0.924   3.489   0.833
  450SOL     OW 1390   0.415   2.520   0.526
  450SOL    HW1 1391   0.431   2.428   0.557
  450SOL    HW2 1392   0.320   2.517   0.509
  451SOL     OW 1393   1.504   2.076   1.708
  451SOL    HW1 1394   1.515   2.090   1.805
  451SOL    HW2 1395   1.427   2.016   1.706
  452SOL     OW 1396   0.640   2.005   0.140
  452SOL    HW1 1397   0.737   1.999   0.128
  452SOL    HW2 1398   0.613   2.028   0.048
  453SOL     OW 1399   5.094   2.123   1.689
  453SOL    HW1 1400   5.174   2.074   1.716
  453SOL    HW2 1401   5.033   2.102   1.760
  454SOL     OW 1402   0.822   3.435   1.121
  454SOL    HW1 1403   0.796   3.351   1.079
  454SOL    HW2 1404   0.882   3.403   1.192
  455SOL     OW 1405   1.291   2.451   1.426
  455SOL    HW1 1406   1.327   2.420   1.512
  455SOL    HW2 1407   1.327   2.542   1.419
  456SOL     OW 1408   0.782   3.204   0.965
  456SOL    HW1 1409   0.875   3.205   0.938
  456SOL    HW2 1410   0.734   3.204   0.881
  457SOL     OW 1411   0.924   2.386   0.878
  457SOL    HW1 1412   0.903   2.370   0.783
  457SOL    HW2 1413   0.955   2.299   0.905
  458SOL     OW 1414   0.561   1.919   0.508
  458SOL    HW1 1415   0.480   1.917   0.562
  458SOL    HW2 1416   0.554   2.005   0.463
  459SOL     OW 1417   1.477   3.021   0.130
  459SOL    HW1 1418   1.510   2.941   0.173
  459SOL    HW2 1419   1.440   2.986   0.048
  460SOL     OW 1420   0.364   1.978   0.182
  460SOL    HW1 1421   0.458   1.992   0.164
  460SOL    HW2 1422   0.366   1.888   0.219
  461SOL     OW 1423   0.942   2.115   0.427
  461SOL    HW1 1424   0.930   2.171   0.350
  461SOL    HW2 1425   1.035   2.132   0.452
  462SOL     OW 1426   1.051   2.581   1.390
  462SOL    HW1 1427   0.975   2.520   1.399
  462SOL    HW2 1428   1.128   2.521   1.401
  463SOL     OW 1429   1.167   3.444   0.806
  463SOL    HW1 1430   1.207   3.500   0.737
  463SOL    HW2 1431   1.179   3.499   0.886
  464SOL     OW 1432   4.821   2.980   0.735
  464SOL    HW1 1433   4.747   2.949   0.792
  464SOL    HW2 1434   4.775   2.986   0.648
  465SOL     OW 1435   1.257   3.648   0.618
  465SOL    HW1 1436   1.295   3.719   0.562
  465SOL    HW2 1437   1.182   3.694   0.660
  466SOL     OW 1438   1.047   2.455   0.010
  466SOL    HW1 1439   1.038   2.549   0.033
  466SOL    HW2 1440   1.144   2.442   0.018
  467SOL     OW 1441   4.440   2.475   1.354
  467SOL    HW1 1442   4.533   2.450   1.339
  467SOL    HW2 1443   4.445   2.518   1.440
  468SOL     OW 1444   4.896   2.081   1.217
  468SOL    HW1 1445   4.941   2.051   1.298
  468SOL    HW2 1446   4.802   2.070   1.242
  469SOL     OW 1447   0.881   2.315   0.621
  469SOL    HW1 1448   0.859   2.376   0.549
  469SOL    HW2 1449   0.887   2.231   0.574
  470SOL     OW 1450   1.008   1.941   0.736
  470SOL    HW1 1451   0.947   1.934   0.661
  470SOL    HW2 1452   0.975   1.870   0.795
  471SOL     OW 1453   1.397   3.013   0.884
  471SOL    HW1 1454   1.339   2.937   0.903
  471SOL    HW2 1455   1.384   3.025   0.787
  472SOL     OW 1456   1.437   2.521   0.931
  472SOL    HW1 1457   1.375   2.448   0.949
  472SOL    HW2 1458   1.501   2.514   1.004
  473SOL     OW 1459   1.918   2.669   0.380
  473SOL    HW1 1460   1.925   2.609   0.457
  473SOL    HW2 1461   1.854   2.622   0.324
  474SOL     OW 1462   0.529   3.270   0.146
  474SOL    HW1 1463   0.456   3.224   0.192
  474SOL    HW2 1464   0.503   3.260   0.053
  475SOL     OW 1465   1.748   3.142   0.597
  475SOL    HW1 1466   1.839   3.146   0.630
  475SOL    HW2 1467   1.702   3.212   0.644
  476SOL     OW 1468   1.323   2.435   0.027
  476SOL    HW1 1469   1.344   2.370   0.096
  476SOL    HW2 1470   1.382   2.408  -0.046
  477SOL     OW 1471   0.559   2.145   0.362
  477SOL    HW1 1472   0.595   2.091   0.289
  477SOL    HW2 1473   0.545   2.229   0.316
  478SOL     OW 1474   1.746   3.072   1.545
  478SOL    HW1 1475   1.840   3.048   1.540
  478SOL    HW2 1476   1.754   3.167   1.566
  479SOL     OW 1477   1.625   3.501   1.687
  479SOL    HW1 1478   1.647   3.564   1.617
  479SOL    HW2 1479   1.686   3.428   1.665
  480SOL     OW 1480   1.078   3.091   1.149
  480SOL    HW1 1481   1.054   3.161   1.212
  480SOL    HW2 1482   1.068   3.136   1.064
  481SOL     OW 1483   1.594   2.956   1.066
  481SOL    HW1 1484   1.599   3.038   1.117
  481SOL    HW2 1485   1.521   2.976   1.004
  482SOL     OW 1486   5.281   1.909   1.350
  482SOL    HW1 1487   5.307   1.912   1.256
  482SOL    HW2 1488   5.355   1.958   1.392
  483SOL     OW 1489   5.328   2.960   1.737
  483SOL    HW1 1490   5.237   2.978   1.766
  483SOL    HW2 1491   5.314   2.894   1.667
  484SOL     OW 1492   0.764   2.918   0.423
  484SOL    HW1 1493   0.750   2.881   0.513
  484SOL    HW2 1494   0.840   2.865   0.390
  485SOL     OW 1495   4.767   2.679   1.274
  485SOL    HW1 1496   4.842   2.687   1.336
  485SOL    HW2 1497   4.745   2.584   1.282
  486SOL     OW 1498   1.254   2.221   1.294
  486SOL    HW1 1499   1.272   2.306   1.338
  486SOL    HW2 1500   1.163   2.237   1.259
  487SOL     OW 1501   4.375   3.396   1.355
  487SOL    HW1 1502   4.367   3.470   1.417
  487SOL    HW2 1503   4.469   3.405   1.327
  488SOL     OW 1504   0.359   2.996   0.503
  488SOL    HW1 1505   0.364   3.063   0.433
  488SOL    HW2 1506   0.337   2.917   0.451
  489SOL     OW 1507   4.867   2.275   0.873
  489SOL    HW1 1508   4.859   2.293   0.778
  489SOL    HW2 1509   4.927   2.346   0.902
  490SOL     OW 1510   1.203   3.228   0.465
  490SOL    HW1 1511   1.266   3.296   0.496
  490SOL    HW2 1512   1.117   3.267   0.486
  491SOL     OW 1513   1.296   3.354   1.172
  491SOL    HW1 1514   1.354   3.379   1.246
  491SOL    HW2 1515   1.213   3.332   1.219
  492SOL     OW 1516   1.495   2.483   0.467
  492SOL    HW1 1517   1.492   2.534   0.550
  492SOL    HW2 1518   1.438   2.537   0.410
  493SOL     OW 1519   4.634   3.417   1.264
  493SOL    HW1 1520   4.641   3.352   1.192
  493SOL    HW2 1521   4.726   3.451   1.265
  494SOL     OW 1522   4.846   2.573   1.646
  494SOL    HW1 1523   4.887   2.618   1.570
  494SOL    HW2 1524   4.912   2.502   1.662
  495SOL     OW 1525   1.632   2.663   1.707
  495SOL    HW1 1526   1.538   2.689   1.697
  495SOL    HW2 1527   1.671   2.702   1.627
  496SOL     OW 1528   5.316   1.986   1.772
  496SOL    HW1 1529   5.373   2.062   1.747
  496SOL    HW2 1530   5.380   1.914   1.772
  497SOL     OW 1531   4.843   1.915   1.812
  497SOL    HW1 1532   4.803   1.868   1.736
  497SOL    HW2 1533   4.813   2.007   1.798
  498SOL     OW 1534   4.901   2.723   1.038
  498SOL    HW1 1535   4.949   2.807   1.048
  498SOL    HW2 1536   4.853   2.715   1.122
  499SOL     OW 1537   1.283   2.763   0.974
  499SOL    HW1 1538   1.196   2.724   0.955
  499SOL    HW2 1539   1.342   2.687   0.961
  500SOL     OW 1540   1.216   2.338   0.290
  500SOL    HW1 1541   1.229   2.288   0.373
  500SOL    HW2 1542   1.181   2.423   0.322
  501SOL     OW 1543   4.630   2.032   1.269
  501SOL    HW1 1544   4.605   2.058   1.360
  501SOL    HW2 1545   4.598   1.939   1.267
  502SOL     OW 1546   4.387   3.148   1.233
  502SOL    HW1 1547   4.423   3.100   1.310
  502SOL    HW2 1548   4.373   3.236   1.271
  503SOL     OW 1549   5.016   2.463   1.010
  503SOL    HW1 1550   5.096   2.463   0.954
  503SOL    HW2 1551   4.983   2.554   1.000
  504SOL     OW 1552   1.778   2.828   1.873
  504SOL    HW1 1553   1.726   2.763   1.823
  504SOL    HW2 1554   1.715   2.855   1.942
  505SOL     OW 1555   4.654   1.910   0.637
  505SOL    HW1 1556   4.618   1.996   0.666
  505SOL    HW2 1557   4.666   1.865   0.724
  506SOL     OW 1558   1.633   2.291   0.337
  506SOL    HW1 1559   1.671   2.225   0.398
  506SOL    HW2 1560   1.581   2.348   0.398
  507SOL     OW 1561   1.040   2.625   0.934
  507SOL    HW1 1562   1.016   2.649   1.026
  507SOL    HW2 1563   0.998   2.537   0.924
  508SOL     OW 1564   5.345   3.404   1.783
  508SOL    HW1 1565   5.314   3.458   1.709
  508SOL    HW2 1566   5.380   3.325   1.738
  509SOL     OW 1567   1.823   3.333   1.589
  509SOL    HW1 1568   1.852   3.364   1.501
  509SOL    HW2 1569   1.903   3.352   1.642
  510SOL     OW 1570   4.761   2.793   1.786
  510SOL    HW1 1571   4.816   2.804   1.864
  510SOL    HW2 1572   4.799   2.715   1.743
  511SOL     OW 1573   1.487   2.195   0.129
  511SOL    HW1 1574   1.475   2.106   0.165
  511SOL    HW2 1575   1.543   2.236   0.198
  512SOL     OW 1576   1.325   2.704   0.042
  512SOL    HW1 1577   1.325   2.607   0.028
  512SOL    HW2 1578   1.414   2.728   0.010
  513SOL     OW 1579   1.043   3.217   0.898
  513SOL    HW1 1580   1.069   3.141   0.841
  513SOL    HW2 1581   1.094   3.290   0.859
  514SOL     OW 1582   4.657   2.631   0.925
  514SOL    HW1 1583   4.751   2.654   0.937
  514SOL    HW2 1584   4.655   2.541   0.962
  515SOL     OW 1585   4.657   2.367   1.019
  515SOL    HW1 1586   4.609   2.282   1.020
  515SOL    HW2 1587   4.735   2.341   0.967
  516SOL     OW 1588   5.457   2.206   1.684
  516SOL    HW1 1589   5.416   2.258   1.755
  516SOL    HW2 1590   5.541   2.254   1.671
  517SOL     OW 1591   1.154   2.040   1.470
  517SOL    HW1 1592   1.135   2.103   1.542
  517SOL    HW2 1593   1.199   2.097   1.405
  518SOL     OW 1594   4.264   3.178   0.332
  518SOL    HW1 1595   4.177   3.136   0.327
  518SOL    HW2 1596   4.321   3.102   0.355
  519SOL     OW 1597   4.407   3.592   0.965
  519SOL    HW1 1598   4.398   3.505   0.925
  519SOL    HW2 1599   4.492   3.622   0.926
  520SOL     OW 1600   4.814   3.407   0.871
  520SOL    HW1 1601   4.879   3.478   0.857
  520SOL    HW2 1602   4.853   3.335   0.819
  521SOL     OW 1603   0.967   2.715   1.172
  521SOL    HW1 1604   1.007   2.665   1.246
  521SOL    HW2 1605   0.923   2.787   1.220
  522SOL     OW 1606   4.389   2.440   1.087
  522SOL    HW1 1607   4.481   2.424   1.061
  522SOL    HW2 1608   4.397   2.456   1.182
  523SOL     OW 1609   4.591   2.510   1.727
  523SOL    HW1 1610   4.684   2.526   1.700
  523SOL    HW2 1611   4.543   2.570   1.669
  524SOL     OW 1612   1.386   2.765   1.652
  524SOL    HW1 1613   1.413   2.858   1.646
  524SOL    HW2 1614   1.368   2.743   1.558
  525SOL     OW 1615   0.852   2.444   0.377
  525SOL    HW1 1616   0.853   2.389   0.296
  525SOL    HW2 1617   0.769   2.495   0.365
  526SOL     OW 1618   1.625   2.498   1.127
  526SOL    HW1 1619   1.612   2.432   1.196
  526SOL    HW2 1620   1.721   2.491   1.110
  527SOL     OW 1621   4.565   3.446   1.625
  527SOL    HW1 1622   4.549   3.487   1.712
  527SOL    HW2 1623   4.509   3.366   1.631
  528SOL     OW 1624   5.069   2.296   1.216
  528SOL    HW1 1625   5.003   2.224   1.211
  528SOL    HW2 1626   5.042   2.355   1.143
  529SOL     OW 1627   5.253   3.545   1.554
  529SOL    HW1 1628   5.279   3.483   1.483
  529SOL    HW2 1629   5.257   3.631   1.507
  530SOL     OW 1630   0.523   2.366   0.204
  530SOL    HW1 1631   0.557   2.445   0.250
  530SOL    HW2 1632   0.426   2.376   0.216
  531SOL     OW 1633   4.504   3.017   1.440
  531SOL    HW1 1634   4.504   2.986   1.533
  531SOL    HW2 1635   4.513   2.933   1.392
  532SOL     OW 1636   1.256   2.898   1.219
  532SOL    HW1 1637   1.265   2.855   1.133
  532SOL    HW2 1638   1.186   2.964   1.200
  533SOL     OW 1639   1.342   2.656   0.318
  533SOL    HW1 1640   1.253   2.637   0.352
  533SOL    HW2 1641   1.324   2.676   0.224
  534SOL     OW 1642   1.802   3.594   1.195
  534SOL    HW1 1643   1.854   3.621   1.117
  534SOL    HW2 1644   1.744   3.526   1.156
  535SOL     OW 1645   1.211   3.578   1.047
  535SOL    HW1 1646   1.294   3.625   1.069
  535SOL    HW2 1647   1.229   3.492   1.089
  536SOL     OW 1648   4.392   2.989   1.018
  536SOL    HW1 1649   4.391   3.047   1.098
  536SOL    HW2 1650   4.341   3.042   0.955
  537SOL     OW 1651   5.055   3.516   1.733
  537SOL    HW1 1652   4.998   3.594   1.721
  537SOL    HW2 1653   5.124   3.531   1.666
  538SOL     OW 1654   0.907   2.006   0.058
  538SOL    HW1 1655   0.923   1.988  -0.036
  538SOL    HW2 1656   0.971   1.946   0.100
  539SOL     OW 1657   1.761   2.083   0.476
  539SOL    HW1 1658   1.822   2.050   0.408
  539SOL    HW2 1659   1.717   2.001   0.505
  540SOL     OW 1660   1.383   3.421   0.535
  540SOL    HW1 1661   1.448   3.448   0.468
  540SOL    HW2 1662   1.343   3.506   0.563
  541SOL     OW 1663   4.502   3.581   1.857
  541SOL    HW1 1664   4.451   3.507   1.896
  541SOL    HW2 1665   4.533   3.627   1.936
  542SOL     OW 1666   1.270   2.804   0.648
  542SOL    HW1 1667   1.352   2.751   0.656
  542SOL    HW2 1668   1.306   2.891   0.621
  543SOL     OW 1669   5.188   3.117   1.472
  543SOL    HW1 1670   5.146   3.163   1.547
  543SOL    HW2 1671   5.241   3.188   1.432
  544SOL     OW 1672   0.647   3.506   0.181
  544SOL    HW1 1673   0.671   3.512   0.088
  544SOL    HW2 1674   0.607   3.416   0.183
  545SOL     OW 1675   1.697   3.643   1.457
  545SOL    HW1 1676   1.722   3.628   1.364
  545SOL    HW2 1677   1.641   3.723   1.451
  546SOL     OW 1678   1.856   2.018   0.969
  546SOL    HW1 1679   1.876   1.929   0.936
  546SOL    HW2 1680   1.767   2.037   0.931
  547SOL     OW 1681   4.577   2.142   0.750
  547SOL    HW1 1682   4.483   2.168   0.736
  547SOL    HW2 1683   4.578   2.134   0.847
  548SOL     OW 1684   1.262   3.395   0.003
  548SOL    HW1 1685   1.237   3.325   0.068
  548SOL    HW2 1686   1.186   3.454   0.009
  549SOL     OW 1687   5.147   2.887   1.343
  549SOL    HW1 1688   5.110   2.920   1.259
  549SOL    HW2 1689   5.163   2.973   1.390
  550SOL     OW 1690   0.961   2.776   0.308
  550SOL    HW1 1691   0.985   2.765   0.214
  550SOL    HW2 1692   1.015   2.708   0.350
  551SOL     OW 1693   1.515   3.448   0.105
  551SOL    HW1 1694   1.431   3.435   0.059
  551SOL    HW2 1695   1.549   3.531   0.066
  552SOL     OW 1696   4.713   3.192   1.456
  552SOL    HW1 1697   4.678   3.278   1.431
  552SOL    HW2 1698   4.635   3.134   1.450
  553SOL     OW 1699   1.636   3.177   1.230
  553SOL    HW1 1700   1.713   3.147   1.280
  553SOL    HW2 1701   1.561   3.145   1.285
  554SOL     OW 1702   1.084   2.987   0.762
  554SOL    HW1 1703   1.008   2.939   0.797
  554SOL    HW2 1704   1.136   2.918   0.719
  555SOL     OW 1705   1.040   2.129   0.945
  555SOL    HW1 1706   1.031   2.085   0.858
  555SOL    HW2 1707   1.042   2.051   1.004
  556SOL     OW 1708   0.549   3.279   0.477
  556SOL    HW1 1709   0.566   3.260   0.384
  556SOL    HW2 1710   0.454   3.303   0.477
  557SOL     OW 1711   1.791   2.195   1.432
  557SOL    HW1 1712   1.854   2.267   1.411
  557SOL    HW2 1713   1.802   2.136   1.354
  558SOL     OW 1714   0.323   3.163   0.279
  558SOL    HW1 1715   0.246   3.137   0.226
  558SOL    HW2 1716   0.286   3.228   0.342
  559SOL     OW 1717   4.535   2.898   1.688
  559SOL    HW1 1718   4.528   2.975   1.747
  559SOL    HW2 1719   4.618   2.858   1.722
  560SOL     OW 1720   5.040   2.003   1.442
  560SOL    HW1 1721   5.127   1.975   1.407
  560SOL    HW2 1722   5.064   2.054   1.521
  561SOL     OW 1723   6.485   0.115   3.052
  561SOL    HW1 1724   6.467   0.037   2.996
  561SOL    HW2 1725   6.576   0.095   3.080
  562SOL     OW 1726   1.370   2.713   1.387
  562SOL    HW1 1727   1.313   2.772   1.335
  562SOL    HW2 1728   1.456   2.726   1.341
  563SOL     OW 1729   4.457   2.053   0.322
  563SOL    HW1 1730   4.421   2.013   0.241
  563SOL    HW2 1731   4.552   2.042   0.306
  564SOL     OW 1732   1.151   3.230   0.197
  564SOL    HW1 1733   1.108   3.144   0.189
  564SOL    HW2 1734   1.182   3.227   0.290
  565SOL     OW 1735   4.984   2.680   1.431
  565SOL    HW1 1736   5.037   2.758   1.407
  565SOL    HW2 1737   5.050   2.608   1.421
  566SOL     OW 1738   1.466   3.641   1.146
  566SOL    HW1 1739   1.530   3.578   1.110
  566SOL    HW2 1740   1.449   3.602   1.234
  567SOL     OW 1741   5.057   2.397   1.669
  567SOL    HW1 1742   5.123   2.445   1.722
  567SOL    HW2 1743   5.077   2.303   1.686
  568SOL     OW 1744   1.487   3.015   1.632
  568SOL    HW1 1745   1.481   3.052   1.722
  568SOL    HW2 1746   1.578   3.039   1.606
  569SOL     OW 1747   4.710   3.658   1.542
  569SOL    HW1 1748   4.633   3.710   1.570
  569SOL    HW2 1749   4.675   3.567   1.555
  570SOL     OW 1750   1.603   2.750   1.248
  570SOL    HW1 1751   1.614   2.670   1.194
  570SOL    HW2 1752   1.598   2.821   1.181
  571SOL     OW 1753   1.205   2.154   0.493
  571SOL    HW1 1754   1.275   2.085   0.493
  571SOL    HW2 1755   1.233   2.211   0.567
  572SOL     OW 1756   0.594   2.572   0.736
  572SOL    HW1 1757   0.639   2.654   0.712
  572SOL    HW2 1758   0.528   2.563   0.665
  573SOL     OW 1759   1.743   2.240   1.693
  573SOL    HW1 1760   1.757   2.231   1.596
  573SOL    HW2 1761   1.668   2.180   1.708
  574SOL     OW 1762   1.727   2.793   1.488
  574SOL    HW1 1763   1.719   2.889   1.501
  574SOL    HW2 1764   1.684   2.780   1.402
  575SOL     OW 1765   0.888   3.133   0.039
  575SOL    HW1 1766   0.865   3.127   0.134
  575SOL    HW2 1767   0.890   3.229   0.027
  576SOL     OW 1768   0.649   3.611   0.816
  576SOL    HW1 1769   0.611   3.697   0.841
  576SOL    HW2 1770   0.739   3.616   0.851
  577SOL     OW 1771   0.877   2.851   0.884
  577SOL    HW1 1772   0.927   2.773   0.910
  577SOL    HW2 1773   0.837   2.879   0.968
  578SOL     OW 1774   1.051   2.729   0.051
  578SOL    HW1 1775   1.016   2.793  -0.013
  578SOL    HW2 1776   1.148   2.738   0.040
  579SOL     OW 1777   1.822   3.406   0.825
  579SOL    HW1 1778   1.736   3.393   0.781
  579SOL    HW2 1779   1.802   3.375   0.915
  580SOL     OW 1780   4.563   3.126   1.840
  580SOL    HW1 1781   4.497   3.190   1.808
  580SOL    HW2 1782   4.571   3.147   1.934
  581SOL     OW 1783   4.472   3.158   0.648
  581SOL    HW1 1784   4.383   3.121   0.663
  581SOL    HW2 1785   4.518   3.085   0.605
  582SOL     OW 1786   5.061   3.240   1.690
  582SOL    HW1 1787   4.964   3.224   1.692
  582SOL    HW2 1788   5.065   3.336   1.705
  583SOL     OW 1789   1.809   2.013   1.237
  583SOL    HW1 1790   1.803   1.917   1.237
  583SOL    HW2 1791   1.830   2.031   1.144
  584SOL     OW 1792   0.450   2.266   0.604
  584SOL    HW1 1793   0.478   2.209   0.531
  584SOL    HW2 1794   0.377   2.217   0.646
  585SOL     OW 1795   1.649   3.400   1.079
  585SOL    HW1 1796   1.577   3.366   1.023
  585SOL    HW2 1797   1.654   3.325   1.143
  586SOL     OW 1798   4.698   2.420   1.295
  586SOL    HW1 1799   4.741   2.353   1.353
  586SOL    HW2 1800   4.706   2.381   1.207
  587SOL     OW 1801   0.798   3.414   0.677
  587SOL    HW1 1802   0.740   3.489   0.697
  587SOL    HW2 1803   0.738   3.338   0.692
  588SOL     OW 1804   1.418   2.122   1.105
  588SOL    HW1 1805   1.434   2.029   1.128
  588SOL    HW2 1806   1.367   2.153   1.183
  589SOL     OW 1807   1.042   1.888   1.083
  589SOL    HW1 1808   0.987   1.827   1.031
  589SOL    HW2 1809   1.127   1.841   1.085
  590SOL     OW 1810   0.854   3.147   0.305
  590SOL    HW1 1811   0.817   3.072   0.354
  590SOL    HW2 1812   0.888   3.204   0.376
  591SOL     OW 1813   4.889   3.502   1.230
  591SOL    HW1 1814   4.904   3.589   1.271
  591SOL    HW2 1815   4.976   3.479   1.196
  592SOL     OW 1816   1.422   1.934   0.205
  592SOL    HW1 1817   1.454   1.848   0.176
  592SOL    HW2 1818   1.341   1.946   0.154
  593SOL     OW 1819   1.285   2.330   0.681
  593SOL    HW1 1820   1.239   2.415   0.672
  593SOL    HW2 1821   1.279   2.315   0.777
  594SOL     OW 1822   1.599   2.076   0.903
  594SOL    HW1 1823   1.539   2.108   0.972
  594SOL    HW2 1824   1.591   2.146   0.836
  595SOL     OW 1825   4.411   2.954   0.395
  595SOL    HW1 1826   4.481   2.904   0.350
  595SOL    HW2 1827   4.400   2.903   0.477
  596SOL     OW 1828   0.881   3.555   0.323
  596SOL    HW1 1829   0.789   3.548   0.291
  596SOL    HW2 1830   0.873   3.624   0.392
  597SOL     OW 1831   4.602   2.594   1.996
  597SOL    HW1 1832   4.575   2.511   2.040
  597SOL    HW2 1833   4.594   2.571   1.902
  598SOL     OW 1834   4.549   2.103   2.837
  598SOL    HW1 1835   4.590   2.066   2.917
  598SOL    HW2 1836   4.468   2.050   2.830
  599SOL     OW 1837   4.357   2.223   2.446
  599SOL    HW1 1838   4.263   2.243   2.428
  599SOL    HW2 1839   4.370   2.143   2.391
  600SOL     OW 1840   2.733   0.987   0.015
  600SOL    HW1 1841   2.649   0.998  -0.033
  600SOL    HW2 1842   2.748   1.079   0.046
  601SOL     OW 1843   5.922   3.408   2.541
  601SOL    HW1 1844   5.867   3.376   2.614
  601SOL    HW2 1845   5.859   3.403   2.467
  602SOL     OW 1846   5.471   2.566   2.534
  602SOL    HW1 1847   5.517   2.650   2.512
  602SOL    HW2 1848   5.432   2.588   2.620
  603SOL     OW 1849   1.827   2.440   2.073
  603SOL    HW1 1850   1.773   2.450   1.992
  603SOL    HW2 1851   1.776   2.371   2.119
  604SOL     OW 1852   5.056   2.974   2.945
  604SOL    HW1 1853   4.990   3.025   2.995
  604SOL    HW2 1854   5.104   3.048   2.903
  605SOL     OW 1855   5.022   2.849   2.520
  605SOL    HW1 1856   5.093   2.857   2.586
  605SOL    HW2 1857   4.958   2.917   2.549
  606SOL     OW 1858   4.673   3.239   2.940
  606SOL    HW1 1859   4.619   3.190   2.878
  606SOL    HW2 1860   4.720   3.304   2.884
  607SOL     OW 1861   3.641   1.117   0.172
  607SOL    HW1 1862   3.672   1.210   0.177
  607SOL    HW2 1863   3.689   1.078   0.248
  608SOL     OW 1864   5.901   2.302   2.614
  608SOL    HW1 1865   5.827   2.304   2.551
  608SOL    HW2 1866   5.883   2.380   2.668
  609SOL     OW 1867   4.563   3.577   2.303
  609SOL    HW1 1868   4.602   3.637   2.369
  609SOL    HW2 1869   4.630   3.581   2.232
  610SOL     OW 1870   4.664   3.328   2.346
  610SOL    HW1 1871   4.620   3.415   2.345
  610SOL    HW2 1872   4.601   3.274   2.398
  611SOL     OW 1873   4.594   2.935   2.708
  611SOL    HW1 1874   4.620   2.845   2.734
  611SOL    HW2 1875   4.540   2.964   2.784
  612SOL     OW 1876   2.761   1.409   0.335
  612SOL    HW1 1877   2.821   1.373   0.401
  612SOL    HW2 1878   2.809   1.488   0.304
  613SOL     OW 1879   4.926   2.849   2.025
  613SOL    HW1 1880   4.978   2.901   1.961
  613SOL    HW2 1881   4.967   2.878   2.109
  614SOL     OW 1882   3.832   4.100   0.350
  614SOL    HW1 1883   3.738   4.114   0.326
  614SOL    HW2 1884   3.843   4.164   0.421
  615SOL     OW 1885   4.496   2.446   2.374
  615SOL    HW1 1886   4.443   2.368   2.398
  615SOL    HW2 1887   4.476   2.505   2.449
  616SOL     OW 1888   1.860   3.601   2.164
  616SOL    HW1 1889   1.938   3.597   2.223
  616SOL    HW2 1890   1.861   3.694   2.136
  617SOL     OW 1891   4.373   3.382   1.986
  617SOL    HW1 1892   4.357   3.292   2.019
  617SOL    HW2 1893   4.343   3.435   2.062
  618SOL     OW 1894   6.042   2.817   2.530
  618SOL    HW1 1895   6.126   2.772   2.511
  618SOL    HW2 1896   6.025   2.867   2.449
  619SOL     OW 1897   1.673   2.983   2.304
  619SOL    HW1 1898   1.756   2.960   2.259
  619SOL    HW2 1899   1.702   3.061   2.357
  620SOL     OW 1900   4.955   3.242   2.645
  620SOL    HW1 1901   4.905   3.160   2.627
  620SOL    HW2 1902   4.958   3.281   2.556
  621SOL     OW 1903   3.395   0.987   0.213
  621SOL    HW1 1904   3.412   0.893   0.194
  621SOL    HW2 1905   3.484   1.026   0.203
  622SOL     OW 1906   5.192   1.867   2.383
  622SOL    HW1 1907   5.231   1.951   2.351
  622SOL    HW2 1908   5.096   1.887   2.376
  623SOL     OW 1909   2.426   0.674   0.081
  623SOL    HW1 1910   2.501   0.618   0.053
  623SOL    HW2 1911   2.398   0.715  -0.002
  624SOL     OW 1912   1.570   2.903   2.058
  624SOL    HW1 1913   1.495   2.846   2.083
  624SOL    HW2 1914   1.603   2.930   2.145
  625SOL     OW 1915   5.769   3.311   2.749
  625SOL    HW1 1916   5.727   3.316   2.837
  625SOL    HW2 1917   5.755   3.216   2.727
  626SOL     OW 1918   5.964   3.693   2.399
  626SOL    HW1 1919   5.956   3.627   2.327
  626SOL    HW2 1920   5.972   3.636   2.477
  627SOL     OW 1921   4.937   2.567   2.126
  627SOL    HW1 1922   4.934   2.657   2.089
  627SOL    HW2 1923   4.871   2.572   2.199
  628SOL     OW 1924   5.614   2.284   2.791
  628SOL    HW1 1925   5.532   2.231   2.793
  628SOL    HW2 1926   5.670   2.234   2.854
  629SOL     OW 1927   1.600   3.523   2.191
  629SOL    HW1 1928   1.696   3.536   2.177
  629SOL    HW2 1929   1.570   3.511   2.099
  630SOL     OW 1930   2.904   0.288   0.240
  630SOL    HW1 1931   2.912   0.221   0.311
  630SOL    HW2 1932   2.897   0.231   0.162
  631SOL     OW 1933   3.164   0.158   0.034
  631SOL    HW1 1934   3.071   0.130   0.045
  631SOL    HW2 1935   3.165   0.183  -0.059
  632SOL     OW 1936   5.387   2.541   2.273
  632SOL    HW1 1937   5.409   2.541   2.368
  632SOL    HW2 1938   5.299   2.498   2.272
  633SOL     OW 1939   4.451   2.604   2.595
  633SOL    HW1 1940   4.525   2.624   2.654
  633SOL    HW2 1941   4.441   2.689   2.547
  634SOL     OW 1942   5.194   2.211   2.069
  634SOL    HW1 1943   5.249   2.251   1.999
  634SOL    HW2 1944   5.150   2.138   2.022
  635SOL     OW 1945   5.741   3.019   2.413
  635SOL    HW1 1946   5.825   3.012   2.365
  635SOL    HW2 1947   5.689   3.079   2.356
  636SOL     OW 1948   4.934   1.978   2.755
  636SOL    HW1 1949   4.937   2.013   2.846
  636SOL    HW2 1950   4.942   2.057   2.701
  637SOL     OW 1951   5.338   3.310   2.322
  637SOL    HW1 1952   5.318   3.379   2.257
  637SOL    HW2 1953   5.299   3.349   2.403
  638SOL     OW 1954   4.661   3.625   2.710
  638SOL    HW1 1955   4.706   3.540   2.723
  638SOL    HW2 1956   4.723   3.683   2.761
  639SOL     OW 1957   6.137   2.926   2.768
  639SOL    HW1 1958   6.101   2.907   2.680
  639SOL    HW2 1959   6.056   2.923   2.822
  640SOL     OW 1960   3.291   1.183   0.378
  640SOL    HW1 1961   3.331   1.114   0.321
  640SOL    HW2 1962   3.242   1.237   0.313
  641SOL     OW 1963   4.664   2.818   2.127
  641SOL    HW1 1964   4.749   2.836   2.084
  641SOL    HW2 1965   4.637   2.736   2.081
  642SOL     OW 1966   5.829   2.644   2.547
  642SOL    HW1 1967   5.816   2.604   2.635
  642SOL    HW2 1968   5.905   2.703   2.560
  643SOL     OW 1969   5.505   3.605   2.100
  643SOL    HW1 1970   5.415   3.580   2.124
  643SOL    HW2 1971   5.529   3.535   2.036
  644SOL     OW 1972   1.679   3.263   1.959
  644SOL    HW1 1973   1.629   3.346   1.952
  644SOL    HW2 1974   1.613   3.198   1.931
  645SOL     OW 1975   4.766   3.607   2.124
  645SOL    HW1 1976   4.833   3.650   2.180
  645SOL    HW2 1977   4.819   3.543   2.074
  646SOL     OW 1978   5.718   1.981   2.320
  646SOL    HW1 1979   5.728   1.955   2.227
  646SOL    HW2 1980   5.803   1.952   2.358
  647SOL     OW 1981   2.399   1.475   0.072
  647SOL    HW1 1982   2.436   1.388   0.094
  647SOL    HW2 1983   2.362   1.459  -0.017
  648SOL     OW 1984   5.305   3.568   2.706
  648SOL    HW1 1985   5.385   3.513   2.700
  648SOL    HW2 1986   5.244   3.520   2.646
  649SOL     OW 1987   4.761   2.529   2.333
  649SOL    HW1 1988   4.782   2.435   2.354
  649SOL    HW2 1989   4.664   2.524   2.332
  650SOL     OW 1990   5.060   1.993   1.955
  650SOL    HW1 1991   5.136   1.943   1.922
  650SOL    HW2 1992   4.986   1.948   1.909
  651SOL     OW 1993   3.000   1.188   0.011
  651SOL    HW1 1994   2.990   1.152  -0.079
  651SOL    HW2 1995   3.047   1.114   0.056
  652SOL     OW 1996   3.480   0.328   0.243
  652SOL    HW1 1997   3.550   0.284   0.294
  652SOL    HW2 1998   3.512   0.419   0.235
  653SOL     OW 1999   5.147   3.210   2.837
  653SOL    HW1 2000   5.232   3.218   2.790
  653SOL    HW2 2001   5.083   3.226   2.766
  654SOL     OW 2002   5.275   2.364   2.744
  654SOL    HW1 2003   5.250   2.351   2.650
  654SOL    HW2 2004   5.315   2.278   2.764
  655SOL     OW 2005   4.933   1.922   2.342
  655SOL    HW1 2006   4.854   1.924   2.399
  655SOL    HW2 2007   4.916   1.995   2.280
  656SOL     OW 2008   1.466   3.094   1.896
  656SOL    HW1 2009   1.500   3.020   1.950
  656SOL    HW2 2010   1.378   3.109   1.935
  657SOL     OW 2011   4.655   1.841   1.996
  657SOL    HW1 2012   4.721   1.863   1.928
  657SOL    HW2 2013   4.710   1.794   2.061
  658SOL     OW 2014   5.290   2.108   2.306
  658SOL    HW1 2015   5.258   2.144   2.221
  658SOL    HW2 2016   5.384   2.134   2.304
  659SOL     OW 2017   3.239   0.215   0.307
  659SOL    HW1 2018   3.199   0.214   0.219
  659SOL    HW2 2019   3.320   0.267   0.292
  660SOL     OW 2020   5.536   3.427   2.634
  660SOL    HW1 2021   5.559   3.500   2.573
  660SOL    HW2 2022   5.623   3.404   2.671
  661SOL     OW 2023   4.812   3.024   2.567
  661SOL    HW1 2024   4.735   2.997   2.621
  661SOL    HW2 2025   4.773   3.022   2.477
  662SOL     OW 2026   5.592   3.650   2.477
  662SOL    HW1 2027   5.640   3.719   2.428
  662SOL    HW2 2028   5.524   3.703   2.522
  663SOL     OW 2029   5.352   2.346   1.889
  663SOL    HW1 2030   5.322   2.433   1.857
  663SOL    HW2 2031   5.418   2.370   1.957
  664SOL     OW 2032   2.264   0.208   0.178
  664SOL    HW1 2033   2.359   0.210   0.159
  664SOL    HW2 2034   2.248   0.300   0.205
  665SOL     OW 2035   4.925   2.038   3.020
  665SOL    HW1 2036   4.953   1.956   3.064
  665SOL    HW2 2037   4.829   2.037   3.036
  666SOL     OW 2038   5.208   2.305   2.489
  666SOL    HW1 2039   5.169   2.358   2.417
  666SOL    HW2 2040   5.237   2.226   2.441
  667SOL     OW 2041   5.367   1.926   2.601
  667SOL    HW1 2042   5.303   1.915   2.529
  667SOL    HW2 2043   5.343   1.854   2.663
  668SOL     OW 2044   5.722   3.050   2.691
  668SOL    HW1 2045   5.631   3.016   2.694
  668SOL    HW2 2046   5.743   3.037   2.596
  669SOL     OW 2047   5.773   2.511   2.783
  669SOL    HW1 2048   5.709   2.437   2.790
  669SOL    HW2 2049   5.830   2.495   2.861
  670SOL     OW 2050   1.817   2.645   2.252
  670SOL    HW1 2051   1.878   2.609   2.319
  670SOL    HW2 2052   1.823   2.578   2.181
  671SOL     OW 2053   4.830   3.319   1.971
  671SOL    HW1 2054   4.759   3.272   2.018
  671SOL    HW2 2055   4.826   3.279   1.883
  672SOL     OW 2056   1.770   3.178   2.454
  672SOL    HW1 2057   1.863   3.173   2.481
  672SOL    HW2 2058   1.740   3.261   2.493
  673SOL     OW 2059   1.387   2.432   1.905
  673SOL    HW1 2060   1.338   2.404   1.985
  673SOL    HW2 2061   1.480   2.424   1.931
  674SOL     OW 2062   4.886   2.105   2.147
  674SOL    HW1 2063   4.950   2.066   2.085
  674SOL    HW2 2064   4.874   2.194   2.107
  675SOL     OW 2065   3.130   0.981   0.131
  675SOL    HW1 2066   3.076   0.946   0.202
  675SOL    HW2 2067   3.218   0.984   0.171
  676SOL     OW 2068   5.470   3.122   2.976
  676SOL    HW1 2069   5.393   3.129   3.036
  676SOL    HW2 2070   5.433   3.151   2.890
  677SOL     OW 2071   5.896   2.938   2.893
  677SOL    HW1 2072   5.911   3.015   2.950
  677SOL    HW2 2073   5.828   2.969   2.831
  678SOL     OW 2074   3.086   4.149   0.157
  678SOL    HW1 2075   3.123   4.138   0.068
  678SOL    HW2 2076   3.164   4.184   0.205
  679SOL     OW 2077   5.061   2.923   2.255
  679SOL    HW1 2078   5.044   2.893   2.346
  679SOL    HW2 2079   5.142   2.872   2.233
  680SOL     OW 2080   2.617   0.481   0.041
  680SOL    HW1 2081   2.661   0.496   0.126
  680SOL    HW2 2082   2.581   0.391   0.054
  681SOL     OW 2083   3.425   0.108   0.082
  681SOL    HW1 2084   3.452   0.188   0.132
  681SOL    HW2 2085   3.332   0.128   0.060
  682SOL     OW 2086   2.222   1.172   0.185
  682SOL    HW1 2087   2.184   1.251   0.227
  682SOL    HW2 2088   2.312   1.200   0.164
  683SOL     OW 2089   4.686   3.008   2.323
  683SOL    HW1 2090   4.689   3.074   2.252
  683SOL    HW2 2091   4.680   2.926   2.272
  684SOL     OW 2092   4.809   2.419   2.737
  684SOL    HW1 2093   4.830   2.476   2.661
  684SOL    HW2 2094   4.896   2.414   2.782
  685SOL     OW 2095   5.587   3.205   2.271
  685SOL    HW1 2096   5.638   3.284   2.298
  685SOL    HW2 2097   5.497   3.231   2.297
  686SOL     OW 2098   5.666   3.312   2.996
  686SOL    HW1 2099   5.710   3.303   3.083
  686SOL    HW2 2100   5.597   3.243   3.000
  687SOL     OW 2101   5.917   2.496   2.326
  687SOL    HW1 2102   5.871   2.540   2.399
  687SOL    HW2 2103   5.983   2.562   2.301
  688SOL     OW 2104   2.485   1.213   0.110
  688SOL    HW1 2105   2.482   1.159   0.029
  688SOL    HW2 2106   2.581   1.233   0.115
  689SOL     OW 2107   4.999   2.699   2.937
  689SOL    HW1 2108   5.002   2.796   2.926
  689SOL    HW2 2109   4.919   2.687   2.991
  690SOL     OW 2110   5.611   2.725   2.890
  690SOL    HW1 2111   5.527   2.693   2.853
  690SOL    HW2 2112   5.674   2.662   2.851
  691SOL     OW 2113   5.528   2.382   2.102
  691SOL    HW1 2114   5.542   2.308   2.165
  691SOL    HW2 2115   5.485   2.448   2.159
  692SOL     OW 2116   2.492   4.187   0.017
  692SOL    HW1 2117   2.513   4.237   0.099
  692SOL    HW2 2118   2.455   4.105   0.052
  693SOL     OW 2119   2.186   0.920   0.100
  693SOL    HW1 2120   2.247   0.891   0.171
  693SOL    HW2 2121   2.184   1.016   0.118
  694SOL     OW 2122   5.043   2.435   2.870
  694SOL    HW1 2123   5.126   2.421   2.821
  694SOL    HW2 2124   5.040   2.531   2.885
  695SOL     OW 2125   4.703   1.923   2.484
  695SOL    HW1 2126   4.659   2.007   2.506
  695SOL    HW2 2127   4.700   1.876   2.570
  696SOL     OW 2128   1.630   2.270   2.182
  696SOL    HW1 2129   1.665   2.210   2.250
  696SOL    HW2 2130   1.601   2.347   2.235
  697SOL     OW 2131   5.366   2.616   2.792
  697SOL    HW1 2132   5.335   2.629   2.885
  697SOL    HW2 2133   5.338   2.524   2.776
  698SOL     OW 2134   1.536   2.121   1.968
  698SOL    HW1 2135   1.487   2.050   2.014
  698SOL    HW2 2136   1.566   2.178   2.041
  699SOL     OW 2137   5.607   2.678   1.883
  699SOL    HW1 2138   5.645   2.588   1.884
  699SOL    HW2 2139   5.643   2.713   1.798
  700SOL     OW 2140   5.391   3.213   2.727
  700SOL    HW1 2141   5.421   3.135   2.677
  700SOL    HW2 2142   5.440   3.286   2.683
  701SOL     OW 2143   4.665   2.680   2.755
  701SOL    HW1 2144   4.737   2.667   2.688
  701SOL    HW2 2145   4.689   2.615   2.821
  702SOL     OW 2146   4.611   2.356   2.900
  702SOL    HW1 2147   4.587   2.265   2.872
  702SOL    HW2 2148   4.681   2.378   2.835
  703SOL     OW 2149   3.309   4.268   0.273
  703SOL    HW1 2150   3.277   4.348   0.319
  703SOL    HW2 2151   3.364   4.308   0.203
  704SOL     OW 2152   4.339   3.137   2.116
  704SOL    HW1 2153   4.245   3.149   2.138
  704SOL    HW2 2154   4.354   3.044   2.143
  705SOL     OW 2155   4.457   3.592   2.883
  705SOL    HW1 2156   4.421   3.508   2.852
  705SOL    HW2 2157   4.528   3.609   2.818
  706SOL     OW 2158   4.818   3.422   2.801
  706SOL    HW1 2159   4.873   3.495   2.834
  706SOL    HW2 2160   4.881   3.369   2.749
  707SOL     OW 2161   5.256   2.651   3.031
  707SOL    HW1 2162   5.267   2.660   3.127
  707SOL    HW2 2163   5.161   2.668   3.020
  708SOL     OW 2164   4.365   2.449   2.976
  708SOL    HW1 2165   4.454   2.425   2.944
  708SOL    HW2 2166   4.368   2.412   3.066
  709SOL     OW 2167   5.143   2.421   2.243
  709SOL    HW1 2168   5.150   2.348   2.179
  709SOL    HW2 2169   5.073   2.476   2.204
  710SOL     OW 2170   5.930   2.466   2.995
  710SOL    HW1 2171   5.915   2.397   3.062
  710SOL    HW2 2172   6.028   2.465   2.991
  711SOL     OW 2173   2.892   0.113   0.028
  711SOL    HW1 2174   2.848   0.028   0.009
  711SOL    HW2 2175   2.874   0.164  -0.053
  712SOL     OW 2176   3.142   1.327   0.205
  712SOL    HW1 2177   3.094   1.293   0.128
  712SOL    HW2 2178   3.146   1.423   0.187
  713SOL     OW 2179   4.824   2.338   2.022
  713SOL    HW1 2180   4.870   2.421   2.044
  713SOL    HW2 2181   4.734   2.356   2.055
  714SOL     OW 2182   2.359   0.840   0.293
  714SOL    HW1 2183   2.322   0.788   0.367
  714SOL    HW2 2184   2.391   0.771   0.232
  715SOL     OW 2185   3.442   0.746   0.031
  715SOL    HW1 2186   3.447   0.679  -0.040
  715SOL    HW2 2187   3.396   0.818  -0.015
  716SOL     OW 2188   5.682   2.766   2.130
  716SOL    HW1 2189   5.619   2.730   2.193
  716SOL    HW2 2190   5.649   2.734   2.045
  717SOL     OW 2191   6.075   3.596   3.008
  717SOL    HW1 2192   6.156   3.615   2.957
  717SOL    HW2 2193   6.052   3.508   2.972
  718SOL     OW 2194   5.589   3.575   2.953
  718SOL    HW1 2195   5.677   3.614   2.938
  718SOL    HW2 2196   5.611   3.482   2.973
  719SOL     OW 2197   4.433   3.009   2.915
  719SOL    HW1 2198   4.409   3.039   3.005
  719SOL    HW2 2199   4.347   3.008   2.872
  720SOL     OW 2200   1.752   2.088   2.345
  720SOL    HW1 2201   1.807   2.051   2.274
  720SOL    HW2 2202   1.705   2.009   2.377
  721SOL     OW 2203   5.725   3.430   2.349
  721SOL    HW1 2204   5.787   3.466   2.284
  721SOL    HW2 2205   5.671   3.507   2.374
  722SOL     OW 2206   5.611   2.791   2.483
  722SOL    HW1 2207   5.691   2.736   2.500
  722SOL    HW2 2208   5.652   2.871   2.445
  723SOL     OW 2209   2.829   0.911   0.265
  723SOL    HW1 2210   2.751   0.945   0.312
  723SOL    HW2 2211   2.809   0.943   0.175
  724SOL     OW 2212   5.024   3.506   2.000
  724SOL    HW1 2213   5.046   3.507   1.905
  724SOL    HW2 2214   4.963   3.429   2.002
  725SOL     OW 2215   3.756   1.364   0.179
  725SOL    HW1 2216   3.816   1.390   0.107
  725SOL    HW2 2217   3.768   1.436   0.243
  726SOL     OW 2218   6.184   2.060   2.853
  726SOL    HW1 2219   6.214   1.969   2.833
  726SOL    HW2 2220   6.095   2.062   2.812
  727SOL     OW 2221   4.598   2.157   2.564
  727SOL    HW1 2222   4.511   2.189   2.534
  727SOL    HW2 2223   4.585   2.150   2.660
  728SOL     OW 2224   5.582   3.417   1.919
  728SOL    HW1 2225   5.576   3.324   1.947
  728SOL    HW2 2226   5.502   3.425   1.863
  729SOL     OW 2227   2.845   0.670   0.145
  729SOL    HW1 2228   2.891   0.699   0.065
  729SOL    HW2 2229   2.842   0.753   0.197
  730SOL     OW 2230   5.275   2.780   2.189
  730SOL    HW1 2231   5.303   2.781   2.095
  730SOL    HW2 2232   5.319   2.699   2.221
  731SOL     OW 2233   1.511   3.502   1.934
  731SOL    HW1 2234   1.419   3.471   1.917
  731SOL    HW2 2235   1.546   3.510   1.843
  732SOL     OW 2236   2.576   1.010   0.310
  732SOL    HW1 2237   2.541   1.085   0.261
  732SOL    HW2 2238   2.500   0.950   0.314
  733SOL     OW 2239   5.971   3.152   3.049
  733SOL    HW1 2240   6.059   3.154   3.092
  733SOL    HW2 2241   5.913   3.187   3.120
  734SOL     OW 2242   5.460   2.967   2.634
  734SOL    HW1 2243   5.374   2.927   2.657
  734SOL    HW2 2244   5.498   2.900   2.575
  735SOL     OW 2245   5.393   2.122   2.797
  735SOL    HW1 2246   5.389   2.062   2.721
  735SOL    HW2 2247   5.391   2.060   2.872
  736SOL     OW 2248   4.942   3.335   2.390
  736SOL    HW1 2249   4.983   3.288   2.315
  736SOL    HW2 2250   4.847   3.333   2.367
  737SOL     OW 2251   3.792   0.110   0.141
  737SOL    HW1 2252   3.870   0.155   0.179
  737SOL    HW2 2253   3.833   0.029   0.104
  738SOL     OW 2254   4.610   3.201   2.111
  738SOL    HW1 2255   4.515   3.183   2.122
  738SOL    HW2 2256   4.629   3.257   2.188
  739SOL     OW 2257   2.853   4.225   0.282
  739SOL    HW1 2258   2.938   4.206   0.238
  739SOL    HW2 2259   2.879   4.299   0.341
  740SOL     OW 2260   4.518   2.251   1.752
  740SOL    HW1 2261   4.442   2.248   1.811
  740SOL    HW2 2262   4.537   2.347   1.746
  741SOL     OW 2263   3.580   0.595   0.216
  741SOL    HW1 2264   3.518   0.650   0.162
  741SOL    HW2 2265   3.650   0.579   0.149
  742SOL     OW 2266   4.402   2.005   2.294
  742SOL    HW1 2267   4.359   1.961   2.218
  742SOL    HW2 2268   4.485   2.034   2.252
  743SOL     OW 2269   5.543   3.158   1.999
  743SOL    HW1 2270   5.446   3.150   1.995
  743SOL    HW2 2271   5.558   3.159   2.096
  744SOL     OW 2272   2.724   0.483   0.305
  744SOL    HW1 2273   2.773   0.558   0.265
  744SOL    HW2 2274   2.786   0.410   0.288
  745SOL     OW 2275   5.831   3.689   2.911
  745SOL    HW1 2276   5.861   3.737   2.831
  745SOL    HW2 2277   5.914   3.657   2.948
  746SOL     OW 2278   3.761   0.567   0.017
  746SOL    HW1 2279   3.760   0.479  -0.026
  746SOL    HW2 2280   3.745   0.628  -0.058
  747SOL     OW 2281   5.550   2.195   2.305
  747SOL    HW1 2282   5.611   2.119   2.310
  747SOL    HW2 2283   5.580   2.247   2.383
  748SOL     OW 2284   4.854   2.634   2.566
  748SOL    HW1 2285   4.920   2.702   2.544
  748SOL    HW2 2286   4.825   2.604   2.477
  749SOL     OW 2287   3.980   0.636   0.166
  749SOL    HW1 2288   3.926   0.681   0.234
  749SOL    HW2 2289   3.911   0.606   0.104
  750SOL     OW 2290   5.263   3.205   1.979
  750SOL    HW1 2291   5.202   3.229   2.050
  750SOL    HW2 2292   5.267   3.285   1.924
  751SOL     OW 2293   5.221   2.849   2.722
  751SOL    HW1 2294   5.264   2.765   2.745
  751SOL    HW2 2295   5.178   2.874   2.805
  752SOL     OW 2296   5.361   2.771   1.933
  752SOL    HW1 2297   5.358   2.849   1.875
  752SOL    HW2 2298   5.453   2.739   1.917
  753SOL     OW 2299   6.158   3.444   2.669
  753SOL    HW1 2300   6.080   3.440   2.610
  753SOL    HW2 2301   6.123   3.400   2.749
  754SOL     OW 2302   4.478   3.161   2.450
  754SOL    HW1 2303   4.388   3.126   2.463
  754SOL    HW2 2304   4.526   3.084   2.416
  755SOL     OW 2305   3.932   4.224   0.048
  755SOL    HW1 2306   4.017   4.217   0.096
  755SOL    HW2 2307   3.963   4.232  -0.044
  756SOL     OW 2308   4.788   2.270   2.392
  756SOL    HW1 2309   4.809   2.196   2.335
  756SOL    HW2 2310   4.726   2.232   2.457
  757SOL     OW 2311   6.005   3.365   2.884
  757SOL    HW1 2312   5.922   3.355   2.835
  757SOL    HW2 2313   6.003   3.285   2.940
  758SOL     OW 2314   2.526   0.230   0.093
  758SOL    HW1 2315   2.563   0.148   0.130
  758SOL    HW2 2316   2.504   0.204   0.001
  759SOL     OW 2317   5.168   3.458   2.491
  759SOL    HW1 2318   5.163   3.544   2.444
  759SOL    HW2 2319   5.085   3.416   2.464
  760SOL     OW 2320   5.756   2.148   2.977
  760SOL    HW1 2321   5.783   2.073   3.032
  760SOL    HW2 2322   5.701   2.198   3.041
  761SOL     OW 2323   5.387   1.916   2.986
  761SOL    HW1 2324   5.370   1.838   2.931
  761SOL    HW2 2325   5.460   1.884   3.043
  762SOL     OW 2326   5.103   3.193   2.215
  762SOL    HW1 2327   5.086   3.097   2.225
  762SOL    HW2 2328   5.188   3.203   2.261
  763SOL     OW 2329   2.752   1.242   0.115
  763SOL    HW1 2330   2.758   1.304   0.190
  763SOL    HW2 2331   2.843   1.247   0.078
  764SOL     OW 2332   5.735   1.898   2.063
  764SOL    HW1 2333   5.776   1.824   2.017
  764SOL    HW2 2334   5.643   1.866   2.071
  765SOL     OW 2335   5.629   2.339   2.524
  765SOL    HW1 2336   5.576   2.421   2.520
  765SOL    HW2 2337   5.619   2.314   2.617
  766SOL     OW 2338   5.921   2.069   2.772
  766SOL    HW1 2339   5.864   2.105   2.843
  766SOL    HW2 2340   5.917   2.141   2.706
  767SOL     OW 2341   4.407   2.885   2.209
  767SOL    HW1 2342   4.491   2.859   2.169
  767SOL    HW2 2343   4.421   2.861   2.302
  768SOL     OW 2344   5.250   3.513   2.159
  768SOL    HW1 2345   5.173   3.504   2.100
  768SOL    HW2 2346   5.216   3.575   2.226
  769SOL     OW 2347   4.552   3.985   0.967
  769SOL    HW1 2348   4.567   3.950   1.057
  769SOL    HW2 2349   4.456   3.968   0.955
  770SOL     OW 2350   4.370   4.056   0.590
  770SOL    HW1 2351   4.278   4.076   0.564
  770SOL    HW2 2352   4.369   3.959   0.578
  771SOL     OW 2353   1.652   0.067   0.159
  771SOL    HW1 2354   1.748   0.051   0.149
  771SOL    HW2 2355   1.622  -0.017   0.195
  772SOL     OW 2356   4.816   4.094   1.480
  772SOL    HW1 2357   4.893   4.035   1.480
  772SOL    HW2 2358   4.741   4.033   1.484
  773SOL     OW 2359   1.553   3.870   1.459
  773SOL    HW1 2360   1.604   3.950   1.437
  773SOL    HW2 2361   1.511   3.894   1.543
  774SOL     OW 2362   4.477   4.304   0.585
  774SOL    HW1 2363   4.435   4.215   0.589
  774SOL    HW2 2364   4.437   4.347   0.663
  775SOL     OW 2365   0.879   3.761   0.502
  775SOL    HW1 2366   0.907   3.842   0.454
  775SOL    HW2 2367   0.781   3.774   0.507
  776SOL     OW 2368   4.726   3.938   1.776
  776SOL    HW1 2369   4.710   4.024   1.819
  776SOL    HW2 2370   4.637   3.906   1.756
  777SOL     OW 2371   1.262   4.013   0.908
  777SOL    HW1 2372   1.179   3.969   0.933
  777SOL    HW2 2373   1.325   3.970   0.968
  778SOL     OW 2374   1.392   4.206   1.671
  778SOL    HW1 2375   1.414   4.258   1.751
  778SOL    HW2 2376   1.427   4.117   1.694
  779SOL     OW 2377   1.037   4.098   1.162
  779SOL    HW1 2378   0.942   4.095   1.185
  779SOL    HW2 2379   1.041   4.027   1.095
  780SOL     OW 2380   4.380   0.114   0.802
  780SOL    HW1 2381   4.438   0.152   0.870
  780SOL    HW2 2382   4.345   0.194   0.760
  781SOL     OW 2383   0.915   4.069   0.094
  781SOL    HW1 2384   0.847   4.086   0.026
  781SOL    HW2 2385   0.933   3.974   0.080
  782SOL     OW 2386   1.726   4.328   1.797
  782SOL    HW1 2387   1.710   4.314   1.891
  782SOL    HW2 2388   1.721   4.238   1.761
  783SOL     OW 2389   4.852   3.832   0.911
  783SOL    HW1 2390   4.869   3.867   1.001
  783SOL    HW2 2391   4.824   3.912   0.864
  784SOL     OW 2392   1.497   0.100   0.697
  784SOL    HW1 2393   1.550   0.173   0.732
  784SOL    HW2 2394   1.479   0.129   0.606
  785SOL     OW 2395   4.563   3.971   1.491
  785SOL    HW1 2396   4.508   4.043   1.527
  785SOL    HW2 2397   4.542   3.899   1.552
  786SOL     OW 2398   1.374   3.828   0.444
  786SOL    HW1 2399   1.370   3.824   0.346
  786SOL    HW2 2400   1.470   3.835   0.460
  787SOL     OW 2401   1.462   3.940   1.715
  787SOL    HW1 2402   1.469   3.948   1.813
  787SOL    HW2 2403   1.394   3.870   1.707
  788SOL     OW 2404   0.662   3.855   0.086
  788SOL    HW1 2405   0.758   3.834   0.091
  788SOL    HW2 2406   0.624   3.770   0.062
  789SOL     OW 2407   5.109   3.997   1.763
  789SOL    HW1 2408   5.203   3.970   1.768
  789SOL    HW2 2409   5.069   3.937   1.827
  790SOL     OW 2410   1.369   4.288   1.416
  790SOL    HW1 2411   1.375   4.254   1.508
  790SOL    HW2 2412   1.306   4.363   1.427
  791SOL     OW 2413   0.611   3.782   0.487
  791SOL    HW1 2414   0.535   3.775   0.549
  791SOL    HW2 2415   0.577   3.845   0.421
  792SOL     OW 2416   0.275   3.712   0.139
  792SOL    HW1 2417   0.283   3.808   0.147
  792SOL    HW2 2418   0.332   3.680   0.213
  793SOL     OW 2419   0.968   3.975   0.359
  793SOL    HW1 2420   0.956   4.020   0.274
  793SOL    HW2 2421   1.053   4.012   0.390
  794SOL     OW 2422   4.478   4.322   1.420
  794SOL    HW1 2423   4.570   4.310   1.391
  794SOL    HW2 2424   4.475   4.419   1.433
  795SOL     OW 2425   4.873   3.931   1.164
  795SOL    HW1 2426   4.896   3.859   1.227
  795SOL    HW2 2427   4.778   3.939   1.182
  796SOL     OW 2428   1.028   3.751   0.736
  796SOL    HW1 2429   0.972   3.756   0.656
  796SOL    HW2 2430   0.984   3.680   0.788
  797SOL     OW 2431   1.451   4.234   0.982
  797SOL    HW1 2432   1.382   4.185   1.029
  797SOL    HW2 2433   1.508   4.265   1.055
  798SOL     OW 2434   0.510   3.944   0.295
  798SOL    HW1 2435   0.570   3.923   0.221
  798SOL    HW2 2436   0.428   3.965   0.248
  799SOL     OW 2437   5.264   3.787   1.412
  799SOL    HW1 2438   5.273   3.755   1.320
  799SOL    HW2 2439   5.352   3.827   1.426
  800SOL     OW 2440   1.298   4.074   1.252
  800SOL    HW1 2441   1.321   4.152   1.306
  800SOL    HW2 2442   1.206   4.093   1.225
  801SOL     OW 2443   4.832   4.304   0.872
  801SOL    HW1 2444   4.804   4.320   0.780
  801SOL    HW2 2445   4.863   4.392   0.899
  802SOL     OW 2446   5.365   3.914   1.788
  802SOL    HW1 2447   5.410   3.980   1.732
  802SOL    HW2 2448   5.425   3.839   1.780
  803SOL     OW 2449   4.890   3.735   1.731
  803SOL    HW1 2450   4.836   3.693   1.661
  803SOL    HW2 2451   4.838   3.816   1.746
  804SOL     OW 2452   4.608   3.909   1.225
  804SOL    HW1 2453   4.587   3.939   1.316
  804SOL    HW2 2454   4.573   3.818   1.226
  805SOL     OW 2455   0.776   4.320   0.957
  805SOL    HW1 2456   0.711   4.267   0.908
  805SOL    HW2 2457   0.733   4.407   0.956
  806SOL     OW 2458   4.710   3.761   0.621
  806SOL    HW1 2459   4.668   3.846   0.645
  806SOL    HW2 2460   4.680   3.703   0.692
  807SOL     OW 2461   1.518   4.099   0.557
  807SOL    HW1 2462   1.566   4.015   0.542
  807SOL    HW2 2463   1.498   4.127   0.466
  808SOL     OW 2464   1.580   3.968   0.132
  808SOL    HW1 2465   1.508   3.904   0.139
  808SOL    HW2 2466   1.545   4.039   0.189
  809SOL     OW 2467   4.652   4.220   1.057
  809SOL    HW1 2468   4.620   4.137   1.018
  809SOL    HW2 2469   4.717   4.249   0.990
  810SOL     OW 2470   5.477   4.100   1.624
  810SOL    HW1 2471   5.413   4.174   1.624
  810SOL    HW2 2472   5.560   4.146   1.644
  811SOL     OW 2473   1.179   3.899   1.447
  811SOL    HW1 2474   1.164   3.975   1.506
  811SOL    HW2 2475   1.231   3.940   1.376
  812SOL     OW 2476   4.409   4.315   1.149
  812SOL    HW1 2477   4.496   4.285   1.118
  812SOL    HW2 2478   4.414   4.298   1.245
  813SOL     OW 2479   4.410   4.162   1.623
  813SOL    HW1 2480   4.438   4.219   1.549
  813SOL    HW2 2481   4.333   4.214   1.655
  814SOL     OW 2482   0.741   4.295   0.244
  814SOL    HW1 2483   0.776   4.206   0.258
  814SOL    HW2 2484   0.705   4.319   0.331
  815SOL     OW 2485   1.611   4.311   1.191
  815SOL    HW1 2486   1.598   4.245   1.260
  815SOL    HW2 2487   1.697   4.283   1.152
  816SOL     OW 2488   5.097   4.101   1.170
  816SOL    HW1 2489   5.021   4.040   1.175
  816SOL    HW2 2490   5.064   4.172   1.113
  817SOL     OW 2491   0.932   3.794   0.073
  817SOL    HW1 2492   0.946   3.732  -0.001
  817SOL    HW2 2493   1.001   3.765   0.135
  818SOL     OW 2494   1.646   3.864   0.515
  818SOL    HW1 2495   1.724   3.856   0.456
  818SOL    HW2 2496   1.644   3.774   0.555
  819SOL     OW 2497   1.819   3.888   0.990
  819SOL    HW1 2498   1.841   3.798   0.960
  819SOL    HW2 2499   1.741   3.910   0.936
  820SOL     OW 2500   4.616   4.001   0.704
  820SOL    HW1 2501   4.530   4.027   0.667
  820SOL    HW2 2502   4.596   3.998   0.800
  821SOL     OW 2503   1.038   3.886   0.984
  821SOL    HW1 2504   1.027   3.843   0.897
  821SOL    HW2 2505   1.008   3.816   1.045
  822SOL     OW 2506   1.739   4.077   1.426
  822SOL    HW1 2507   1.804   4.149   1.413
  822SOL    HW2 2508   1.775   4.008   1.366
  823SOL     OW 2509   5.037   3.922   1.504
  823SOL    HW1 2510   5.121   3.885   1.470
  823SOL    HW2 2511   5.063   3.950   1.594
  824SOL     OW 2512   4.339   4.013   0.086
  824SOL    HW1 2513   4.284   4.090   0.112
  824SOL    HW2 2514   4.316   4.003  -0.007
  825SOL     OW 2515   4.294   3.833   0.286
  825SOL    HW1 2516   4.306   3.905   0.223
  825SOL    HW2 2517   4.318   3.755   0.232
  826SOL     OW 2518   5.066   4.274   1.748
  826SOL    HW1 2519   4.975   4.283   1.715
  826SOL    HW2 2520   5.076   4.177   1.754
  827SOL     OW 2521   1.215   4.058   0.454
  827SOL    HW1 2522   1.264   3.976   0.473
  827SOL    HW2 2523   1.216   4.104   0.540
  828SOL     OW 2524   1.709   4.072   1.698
  828SOL    HW1 2525   1.720   4.074   1.600
  828SOL    HW2 2526   1.632   4.014   1.708
  829SOL     OW 2527   1.829   3.887   1.261
  829SOL    HW1 2528   1.844   3.791   1.266
  829SOL    HW2 2529   1.820   3.900   1.165
  830SOL     OW 2530   0.437   4.117   0.501
  830SOL    HW1 2531   0.479   4.047   0.449
  830SOL    HW2 2532   0.400   4.070   0.578
  831SOL     OW 2533   4.722   4.291   1.310
  831SOL    HW1 2534   4.771   4.224   1.362
  831SOL    HW2 2535   4.712   4.248   1.223
  832SOL     OW 2536   1.445   3.909   1.079
  832SOL    HW1 2537   1.458   3.818   1.112
  832SOL    HW2 2538   1.409   3.954   1.158
  833SOL     OW 2539   0.980   3.681   1.162
  833SOL    HW1 2540   0.921   3.604   1.161
  833SOL    HW2 2541   1.063   3.641   1.128
  834SOL     OW 2542   1.345   3.813   0.167
  834SOL    HW1 2543   1.351   3.820   0.069
  834SOL    HW2 2544   1.260   3.767   0.177
  835SOL     OW 2545   1.225   4.187   0.708
  835SOL    HW1 2546   1.153   4.248   0.732
  835SOL    HW2 2547   1.220   4.121   0.780
  836SOL     OW 2548   1.585   3.962   0.848
  836SOL    HW1 2549   1.540   3.957   0.935
  836SOL    HW2 2550   1.534   3.899   0.796
  837SOL     OW 2551   4.543   3.992   2.969
  837SOL    HW1 2552   4.598   3.967   2.892
  837SOL    HW2 2553   4.466   3.933   2.960
  838SOL     OW 2554   4.366   4.055   2.506
  838SOL    HW1 2555   4.308   4.011   2.571
  838SOL    HW2 2556   4.347   4.007   2.424
  839SOL     OW 2557   1.609   0.003   2.096
  839SOL    HW1 2558   1.699   0.034   2.121
  839SOL    HW2 2559   1.603  -0.083   2.141
  840SOL     OW 2560   5.959   4.126   2.608
  840SOL    HW1 2561   5.882   4.140   2.549
  840SOL    HW2 2562   5.940   4.190   2.679
  841SOL     OW 2563   3.848   1.625   0.316
  841SOL    HW1 2564   3.875   1.646   0.224
  841SOL    HW2 2565   3.934   1.612   0.361
  842SOL     OW 2566   4.486   4.303   2.517
  842SOL    HW1 2567   4.434   4.220   2.520
  842SOL    HW2 2568   4.440   4.360   2.582
  843SOL     OW 2569   5.150   3.683   2.342
  843SOL    HW1 2570   5.201   3.767   2.345
  843SOL    HW2 2571   5.058   3.717   2.331
  844SOL     OW 2572   5.608   4.116   2.758
  844SOL    HW1 2573   5.519   4.078   2.766
  844SOL    HW2 2574   5.657   4.056   2.818
  845SOL     OW 2575   5.342   4.141   3.015
  845SOL    HW1 2576   5.249   4.126   3.041
  845SOL    HW2 2577   5.352   4.080   2.940
  846SOL     OW 2578   4.360   0.154   2.676
  846SOL    HW1 2579   4.369   0.243   2.637
  846SOL    HW2 2580   4.265   0.137   2.660
  847SOL     OW 2581   5.188   3.994   2.091
  847SOL    HW1 2582   5.261   3.997   2.027
  847SOL    HW2 2583   5.130   3.927   2.052
  848SOL     OW 2584   4.718   4.003   2.756
  848SOL    HW1 2585   4.776   3.931   2.788
  848SOL    HW2 2586   4.773   4.082   2.768
  849SOL     OW 2587   5.815   0.097   2.568
  849SOL    HW1 2588   5.819   0.051   2.653
  849SOL    HW2 2589   5.863   0.178   2.592
  850SOL     OW 2590   5.740   3.833   2.329
  850SOL    HW1 2591   5.740   3.802   2.236
  850SOL    HW2 2592   5.824   3.796   2.362
  851SOL     OW 2593   5.014   3.805   1.961
  851SOL    HW1 2594   5.036   3.720   2.003
  851SOL    HW2 2595   4.970   3.773   1.880
  852SOL     OW 2596   3.485   2.113   0.239
  852SOL    HW1 2597   3.562   2.124   0.297
  852SOL    HW2 2598   3.437   2.196   0.253
  853SOL     OW 2599   4.901   3.776   2.294
  853SOL    HW1 2600   4.835   3.764   2.366
  853SOL    HW2 2601   4.876   3.861   2.255
  854SOL     OW 2602   4.587   3.793   2.044
  854SOL    HW1 2603   4.649   3.868   2.047
  854SOL    HW2 2604   4.647   3.721   2.073
  855SOL     OW 2605   5.288   3.913   2.342
  855SOL    HW1 2606   5.254   3.956   2.262
  855SOL    HW2 2607   5.377   3.954   2.349
  856SOL     OW 2608   2.165   2.097   0.166
  856SOL    HW1 2609   2.253   2.064   0.187
  856SOL    HW2 2610   2.172   2.191   0.192
  857SOL     OW 2611   2.758   1.742   0.072
  857SOL    HW1 2612   2.750   1.690  -0.011
  857SOL    HW2 2613   2.665   1.738   0.104
  858SOL     OW 2614   5.386   3.803   2.589
  858SOL    HW1 2615   5.331   3.831   2.515
  858SOL    HW2 2616   5.338   3.726   2.626
  859SOL     OW 2617   5.830   4.284   2.798
  859SOL    HW1 2618   5.746   4.236   2.809
  859SOL    HW2 2619   5.865   4.285   2.889
  860SOL     OW 2620   4.815   3.964   2.082
  860SOL    HW1 2621   4.886   3.914   2.039
  860SOL    HW2 2622   4.804   4.040   2.023
  861SOL     OW 2623   3.155   1.597   0.149
  861SOL    HW1 2624   3.173   1.592   0.053
  861SOL    HW2 2625   3.236   1.637   0.185
  862SOL     OW 2626   3.419   1.916   0.070
  862SOL    HW1 2627   3.444   1.993   0.126
  862SOL    HW2 2628   3.335   1.947   0.031
  863SOL     OW 2629   4.826   4.255   2.780
  863SOL    HW1 2630   4.808   4.299   2.695
  863SOL    HW2 2631   4.915   4.289   2.801
  864SOL     OW 2632   2.487   1.720   0.137
  864SOL    HW1 2633   2.450   1.769   0.061
  864SOL    HW2 2634   2.461   1.628   0.115
  865SOL     OW 2635   5.078   0.034   2.826
  865SOL    HW1 2636   5.158   0.037   2.770
  865SOL    HW2 2637   5.033   0.118   2.801
  866SOL     OW 2638   4.693   3.744   2.467
  866SOL    HW1 2639   4.671   3.837   2.487
  866SOL    HW2 2640   4.684   3.702   2.555
  867SOL     OW 2641   5.897   4.097   2.222
  867SOL    HW1 2642   5.969   4.042   2.259
  867SOL    HW2 2643   5.827   4.084   2.287
  868SOL     OW 2644   1.485   3.980   1.978
  868SOL    HW1 2645   1.453   3.896   2.016
  868SOL    HW2 2646   1.515   4.027   2.058
  869SOL     OW 2647   4.591   4.254   2.936
  869SOL    HW1 2648   4.575   4.158   2.937
  869SOL    HW2 2649   4.669   4.261   2.878
  870SOL     OW 2650   3.356   1.752   0.278
  870SOL    HW1 2651   3.299   1.813   0.326
  870SOL    HW2 2652   3.386   1.806   0.203
  871SOL     OW 2653   4.328   0.003   2.964
  871SOL    HW1 2654   4.423  -0.012   2.946
  871SOL    HW2 2655   4.320  -0.029   3.055
  872SOL     OW 2656   5.076   4.258   2.128
  872SOL    HW1 2657   5.114   4.169   2.131
  872SOL    HW2 2658   5.041   4.270   2.219
  873SOL     OW 2659   5.937   4.285   3.052
  873SOL    HW1 2660   5.907   4.229   3.125
  873SOL    HW2 2661   6.027   4.248   3.034
  874SOL     OW 2662   5.066   4.123   3.053
  874SOL    HW1 2663   5.022   4.043   3.087
  874SOL    HW2 2664   5.040   4.122   2.960
  875SOL     OW 2665   1.755   3.928   2.319
  875SOL    HW1 2666   1.808   3.903   2.241
  875SOL    HW2 2667   1.723   3.841   2.351
  876SOL     OW 2668   6.145   3.876   2.859
  876SOL    HW1 2669   6.181   3.789   2.832
  876SOL    HW2 2670   6.063   3.882   2.806
  877SOL     OW 2671   4.632   4.001   2.504
  877SOL    HW1 2672   4.538   4.028   2.513
  877SOL    HW2 2673   4.664   4.009   2.596
  878SOL     OW 2674   5.389   3.960   2.814
  878SOL    HW1 2675   5.386   3.917   2.727
  878SOL    HW2 2676   5.380   3.881   2.872
  879SOL     OW 2677   3.873   1.912   0.231
  879SOL    HW1 2678   3.963   1.949   0.235
  879SOL    HW2 2679   3.882   1.844   0.162
  880SOL     OW 2680   2.911   1.622   0.264
  880SOL    HW1 2681   2.998   1.615   0.219
  880SOL    HW2 2682   2.859   1.672   0.197
  881SOL     OW 2683   4.430   4.126   1.902
  881SOL    HW1 2684   4.382   4.048   1.935
  881SOL    HW2 2685   4.417   4.120   1.806
  882SOL     OW 2686   4.359   3.896   2.276
  882SOL    HW1 2687   4.340   3.912   2.182
  882SOL    HW2 2688   4.450   3.863   2.272
  883SOL     OW 2689   5.539   4.014   2.357
  883SOL    HW1 2690   5.607   3.945   2.346
  883SOL    HW2 2691   5.588   4.082   2.407
  884SOL     OW 2692   3.914   1.691   0.061
  884SOL    HW1 2693   3.912   1.598   0.033
  884SOL    HW2 2694   3.943   1.732  -0.023
  885SOL     OW 2695   4.664   4.114   2.258
  885SOL    HW1 2696   4.726   4.058   2.209
  885SOL    HW2 2697   4.665   4.074   2.347
  886SOL     OW 2698   2.469   2.112   0.139
  886SOL    HW1 2699   2.567   2.111   0.137
  886SOL    HW2 2700   2.450   2.089   0.046
  887SOL     OW 2701   5.732   3.959   2.937
  887SOL    HW1 2702   5.741   3.865   2.961
  887SOL    HW2 2703   5.685   3.996   3.015
  888SOL     OW 2704   5.367   3.721   2.944
  888SOL    HW1 2705   5.317   3.670   2.879
  888SOL    HW2 2706   5.449   3.667   2.949
  889SOL     OW 2707   5.735   3.740   2.073
  889SOL    HW1 2708   5.779   3.669   2.023
  889SOL    HW2 2709   5.645   3.702   2.083
  890SOL     OW 2710   5.704   4.181   2.505
  890SOL    HW1 2711   5.723   4.276   2.513
  890SOL    HW2 2712   5.664   4.160   2.592
  891SOL     OW 2713   5.907   3.889   2.735
  891SOL    HW1 2714   5.843   3.929   2.796
  891SOL    HW2 2715   5.927   3.963   2.674
  892SOL     OW 2716   2.089   0.662   0.161
  892SOL    HW1 2717   1.994   0.654   0.179
  892SOL    HW2 2718   2.098   0.755   0.135
  893SOL     OW 2719   2.077   0.302   1.033
  893SOL    HW1 2720   2.108   0.267   1.119
  893SOL    HW2 2721   1.984   0.274   1.032
  894SOL     OW 2722   1.859   0.307   0.695
  894SOL    HW1 2723   1.782   0.330   0.749
  894SOL    HW2 2724   1.819   0.292   0.608
  895SOL     OW 2725   2.444   1.319   1.249
  895SOL    HW1 2726   2.364   1.317   1.194
  895SOL    HW2 2727   2.453   1.415   1.264
  896SOL     OW 2728   3.466   1.572   0.684
  896SOL    HW1 2729   3.431   1.537   0.768
  896SOL    HW2 2730   3.382   1.602   0.642
  897SOL     OW 2731   2.988   0.710   0.694
  897SOL    HW1 2732   3.028   0.799   0.689
  897SOL    HW2 2733   2.938   0.716   0.776
  898SOL     OW 2734   2.590   1.126   1.122
  898SOL    HW1 2735   2.534   1.181   1.180
  898SOL    HW2 2736   2.621   1.196   1.061
  899SOL     OW 2737   2.764   0.717   1.792
  899SOL    HW1 2738   2.799   0.778   1.860
  899SOL    HW2 2739   2.771   0.774   1.713
  900SOL     OW 2740   2.520   0.910   0.737
  900SOL    HW1 2741   2.596   0.943   0.788
  900SOL    HW2 2742   2.471   0.991   0.717
  901SOL     OW 2743   2.554   1.144   1.845
  901SOL    HW1 2744   2.589   1.228   1.881
  901SOL    HW2 2745   2.480   1.176   1.790
  902SOL     OW 2746   2.227   1.372   1.084
  902SOL    HW1 2747   2.172   1.313   1.030
  902SOL    HW2 2748   2.266   1.431   1.017
  903SOL     OW 2749   3.289   1.506   1.369
  903SOL    HW1 2750   3.345   1.583   1.389
  903SOL    HW2 2751   3.215   1.518   1.432
  904SOL     OW 2752   2.233   0.294   1.549
  904SOL    HW1 2753   2.327   0.273   1.532
  904SOL    HW2 2754   2.227   0.280   1.645
  905SOL     OW 2755   3.432   0.518   0.703
  905SOL    HW1 2756   3.335   0.509   0.692
  905SOL    HW2 2757   3.452   0.575   0.626
  906SOL     OW 2758   2.118   1.709   0.451
  906SOL    HW1 2759   2.132   1.786   0.508
  906SOL    HW2 2760   2.210   1.687   0.425
  907SOL     OW 2761   2.952   1.320   1.671
  907SOL    HW1 2762   3.003   1.270   1.605
  907SOL    HW2 2763   2.905   1.247   1.716
  908SOL     OW 2764   1.983   1.492   0.559
  908SOL    HW1 2765   2.027   1.571   0.524
  908SOL    HW2 2766   1.953   1.522   0.646
  909SOL     OW 2767   2.153   1.074   0.870
  909SOL    HW1 2768   2.175   0.982   0.895
  909SOL    HW2 2769   2.098   1.102   0.946
  910SOL     OW 2770   2.401   1.845   1.379
  910SOL    HW1 2771   2.332   1.823   1.445
  910SOL    HW2 2772   2.454   1.910   1.428
  911SOL     OW 2773   3.404   0.171   1.373
  911SOL    HW1 2774   3.343   0.095   1.377
  911SOL    HW2 2775   3.389   0.212   1.459
  912SOL     OW 2776   1.978   0.701   0.578
  912SOL    HW1 2777   1.965   0.608   0.594
  912SOL    HW2 2778   1.971   0.739   0.669
  913SOL     OW 2779   1.950   1.567   0.022
  913SOL    HW1 2780   1.927   1.483   0.065
  913SOL    HW2 2781   1.941   1.629   0.097
  914SOL     OW 2782   3.552   0.958   0.688
  914SOL    HW1 2783   3.576   0.912   0.607
  914SOL    HW2 2784   3.556   1.051   0.662
  915SOL     OW 2785   2.068   0.749   1.589
  915SOL    HW1 2786   2.163   0.758   1.608
  915SOL    HW2 2787   2.033   0.834   1.624
  916SOL     OW 2788   2.494   1.371   0.752
  916SOL    HW1 2789   2.453   1.285   0.730
  916SOL    HW2 2790   2.514   1.408   0.664
  917SOL     OW 2791   3.084   1.199   1.468
  917SOL    HW1 2792   3.097   1.137   1.394
  917SOL    HW2 2793   3.171   1.195   1.513
  918SOL     OW 2794   2.717   0.208   0.600
  918SOL    HW1 2795   2.700   0.304   0.605
  918SOL    HW2 2796   2.637   0.176   0.553
  919SOL     OW 2797   2.055   0.998   1.303
  919SOL    HW1 2798   2.135   0.942   1.298
  919SOL    HW2 2799   2.048   1.032   1.213
  920SOL     OW 2800   2.992   1.781   1.629
  920SOL    HW1 2801   3.015   1.850   1.565
  920SOL    HW2 2802   3.023   1.700   1.585
  921SOL     OW 2803   2.189   0.263   1.821
  921SOL    HW1 2804   2.236   0.332   1.871
  921SOL    HW2 2805   2.161   0.203   1.893
  922SOL     OW 2806   3.363   1.473   0.914
  922SOL    HW1 2807   3.293   1.485   0.982
  922SOL    HW2 2808   3.355   1.377   0.893
  923SOL     OW 2809   3.562   1.730   0.470
  923SOL    HW1 2810   3.487   1.721   0.408
  923SOL    HW2 2811   3.533   1.674   0.545
  924SOL     OW 2812   3.141   0.413   0.950
  924SOL    HW1 2813   3.055   0.368   0.958
  924SOL    HW2 2814   3.195   0.363   1.013
  925SOL     OW 2815   2.654   0.637   1.437
  925SOL    HW1 2816   2.619   0.596   1.518
  925SOL    HW2 2817   2.634   0.572   1.367
  926SOL     OW 2818   3.237   0.458   1.656
  926SOL    HW1 2819   3.240   0.497   1.746
  926SOL    HW2 2820   3.298   0.383   1.664
  927SOL     OW 2821   2.809   0.898   1.585
  927SOL    HW1 2822   2.867   0.839   1.534
  927SOL    HW2 2823   2.764   0.946   1.513
  928SOL     OW 2824   2.875   0.450   1.197
  928SOL    HW1 2825   2.780   0.470   1.207
  928SOL    HW2 2826   2.875   0.398   1.115
  929SOL     OW 2827   2.986   0.703   0.419
  929SOL    HW1 2828   2.978   0.698   0.516
  929SOL    HW2 2829   2.930   0.779   0.397
  930SOL     OW 2830   1.957   0.800   0.828
  930SOL    HW1 2831   2.043   0.808   0.873
  930SOL    HW2 2832   1.903   0.867   0.874
  931SOL     OW 2833   1.953   1.885   1.584
  931SOL    HW1 2834   1.954   1.849   1.675
  931SOL    HW2 2835   1.858   1.897   1.568
  932SOL     OW 2836   3.635   0.593   1.759
  932SOL    HW1 2837   3.569   0.664   1.743
  932SOL    HW2 2838   3.717   0.638   1.733
  933SOL     OW 2839   3.201   1.201   0.625
  933SOL    HW1 2840   3.244   1.193   0.537
  933SOL    HW2 2841   3.131   1.264   0.607
  934SOL     OW 2842   2.505   0.260   0.985
  934SOL    HW1 2843   2.466   0.279   1.071
  934SOL    HW2 2844   2.468   0.330   0.928
  935SOL     OW 2845   2.970   1.578   0.526
  935SOL    HW1 2846   2.955   1.599   0.432
  935SOL    HW2 2847   2.883   1.601   0.565
  936SOL     OW 2848   2.218   1.786   0.867
  936SOL    HW1 2849   2.259   1.698   0.874
  936SOL    HW2 2850   2.292   1.845   0.892
  937SOL     OW 2851   3.663   1.009   0.932
  937SOL    HW1 2852   3.619   0.993   0.846
  937SOL    HW2 2853   3.587   1.035   0.988
  938SOL     OW 2854   3.050   1.533   1.512
  938SOL    HW1 2855   3.032   1.470   1.583
  938SOL    HW2 2856   2.991   1.500   1.442
  939SOL     OW 2857   3.314   0.825   0.756
  939SOL    HW1 2858   3.322   0.762   0.829
  939SOL    HW2 2859   3.405   0.858   0.743
  940SOL     OW 2860   2.348   1.279   1.726
  940SOL    HW1 2861   2.311   1.279   1.635
  940SOL    HW2 2862   2.268   1.298   1.777
  941SOL     OW 2863   1.994   0.142   1.658
  941SOL    HW1 2864   1.987   0.211   1.591
  941SOL    HW2 2865   2.056   0.182   1.721
  942SOL     OW 2866   2.394   1.690   0.392
  942SOL    HW1 2867   2.415   1.775   0.433
  942SOL    HW2 2868   2.426   1.702   0.301
  943SOL     OW 2869   2.068   1.780   1.215
  943SOL    HW1 2870   2.133   1.713   1.236
  943SOL    HW2 2871   2.049   1.764   1.121
  944SOL     OW 2872   2.821   1.699   0.894
  944SOL    HW1 2873   2.903   1.646   0.897
  944SOL    HW2 2874   2.782   1.666   0.811
  945SOL     OW 2875   2.248   0.694   0.495
  945SOL    HW1 2876   2.246   0.598   0.515
  945SOL    HW2 2877   2.156   0.718   0.515
  946SOL     OW 2878   3.408   0.240   1.695
  946SOL    HW1 2879   3.405   0.264   1.790
  946SOL    HW2 2880   3.409   0.144   1.702
  947SOL     OW 2881   2.570   0.299   1.756
  947SOL    HW1 2882   2.659   0.264   1.774
  947SOL    HW2 2883   2.518   0.247   1.819
  948SOL     OW 2884   2.697   1.520   1.202
  948SOL    HW1 2885   2.679   1.467   1.122
  948SOL    HW2 2886   2.773   1.475   1.240
  949SOL     OW 2887   3.190   0.601   1.427
  949SOL    HW1 2888   3.217   0.567   1.514
  949SOL    HW2 2889   3.222   0.694   1.428
  950SOL     OW 2890   2.652   1.351   0.981
  950SOL    HW1 2891   2.743   1.353   0.945
  950SOL    HW2 2892   2.598   1.363   0.900
  951SOL     OW 2893   2.782   0.506   0.868
  951SOL    HW1 2894   2.753   0.491   0.776
  951SOL    HW2 2895   2.809   0.417   0.896
  952SOL     OW 2896   2.504   0.120   0.455
  952SOL    HW1 2897   2.435   0.100   0.521
  952SOL    HW2 2898   2.478   0.210   0.426
  953SOL     OW 2899   2.940   0.717   1.433
  953SOL    HW1 2900   2.879   0.642   1.435
  953SOL    HW2 2901   3.027   0.674   1.424
  954SOL     OW 2902   3.042   1.551   0.790
  954SOL    HW1 2903   3.021   1.558   0.695
  954SOL    HW2 2904   3.132   1.585   0.792
  955SOL     OW 2905   2.358   1.137   0.699
  955SOL    HW1 2906   2.289   1.120   0.765
  955SOL    HW2 2907   2.308   1.131   0.616
  956SOL     OW 2908   3.112   1.898   0.610
  956SOL    HW1 2909   3.109   1.981   0.558
  956SOL    HW2 2910   3.039   1.912   0.672
  957SOL     OW 2911   1.987   0.570   1.396
  957SOL    HW1 2912   2.077   0.560   1.358
  957SOL    HW2 2913   2.003   0.640   1.462
  958SOL     OW 2914   2.408   0.319   1.246
  958SOL    HW1 2915   2.447   0.279   1.325
  958SOL    HW2 2916   2.319   0.279   1.245
  959SOL     OW 2917   2.682   0.481   0.604
  959SOL    HW1 2918   2.608   0.543   0.619
  959SOL    HW2 2919   2.709   0.502   0.514
  960SOL     OW 2920   2.831   0.082   0.806
  960SOL    HW1 2921   2.788   0.127   0.730
  960SOL    HW2 2922   2.891   0.021   0.762
  961SOL     OW 2923   3.372   1.214   0.837
  961SOL    HW1 2924   3.303   1.199   0.770
  961SOL    HW2 2925   3.452   1.215   0.782
  962SOL     OW 2926   3.280   0.658   0.975
  962SOL    HW1 2927   3.231   0.574   0.967
  962SOL    HW2 2928   3.349   0.635   1.040
  963SOL     OW 2929   3.795   0.731   0.346
  963SOL    HW1 2930   3.802   0.705   0.441
  963SOL    HW2 2931   3.714   0.685   0.318
  964SOL     OW 2932   3.588   1.231   0.669
  964SOL    HW1 2933   3.686   1.226   0.672
  964SOL    HW2 2934   3.574   1.308   0.612
  965SOL     OW 2935   2.460   0.378   0.388
  965SOL    HW1 2936   2.544   0.417   0.360
  965SOL    HW2 2937   2.397   0.418   0.325
  966SOL     OW 2938   3.572   1.242   1.507
  966SOL    HW1 2939   3.661   1.203   1.497
  966SOL    HW2 2940   3.595   1.331   1.539
  967SOL     OW 2941   2.889   1.359   1.349
  967SOL    HW1 2942   2.803   1.333   1.388
  967SOL    HW2 2943   2.951   1.300   1.395
  968SOL     OW 2944   3.465   1.607   1.663
  968SOL    HW1 2945   3.452   1.657   1.581
  968SOL    HW2 2946   3.547   1.558   1.642
  969SOL     OW 2947   3.030   1.276   1.130
  969SOL    HW1 2948   2.968   1.308   1.197
  969SOL    HW2 2949   2.982   1.293   1.046
  970SOL     OW 2950   3.450   1.099   1.075
  970SOL    HW1 2951   3.444   1.173   1.139
  970SOL    HW2 2952   3.405   1.136   0.997
  971SOL     OW 2953   2.729   0.173   1.388
  971SOL    HW1 2954   2.747   0.141   1.298
  971SOL    HW2 2955   2.819   0.177   1.425
  972SOL     OW 2956   2.822   1.098   1.769
  972SOL    HW1 2957   2.728   1.109   1.792
  972SOL    HW2 2958   2.817   1.030   1.699
  973SOL     OW 2959   2.280   0.841   1.295
  973SOL    HW1 2960   2.349   0.850   1.364
  973SOL    HW2 2961   2.261   0.746   1.298
  974SOL     OW 2962   3.108   0.382   1.303
  974SOL    HW1 2963   3.140   0.464   1.346
  974SOL    HW2 2964   3.024   0.412   1.263
  975SOL     OW 2965   1.926   1.554   1.346
  975SOL    HW1 2966   1.916   1.645   1.315
  975SOL    HW2 2967   2.024   1.544   1.344
  976SOL     OW 2968   2.192   1.120   0.478
  976SOL    HW1 2969   2.157   1.200   0.434
  976SOL    HW2 2970   2.232   1.073   0.405
  977SOL     OW 2971   2.403   0.486   0.858
  977SOL    HW1 2972   2.412   0.521   0.768
  977SOL    HW2 2973   2.461   0.547   0.908
  978SOL     OW 2974   3.190   1.496   1.118
  978SOL    HW1 2975   3.227   1.500   1.209
  978SOL    HW2 2976   3.138   1.413   1.122
  979SOL     OW 2977   3.483   0.652   0.471
  979SOL    HW1 2978   3.397   0.687   0.439
  979SOL    HW2 2979   3.522   0.622   0.387
  980SOL     OW 2980   2.189   1.521   1.305
  980SOL    HW1 2981   2.196   1.464   1.226
  980SOL    HW2 2982   2.282   1.551   1.314
  981SOL     OW 2983   2.335   0.750   1.660
  981SOL    HW1 2984   2.388   0.799   1.593
  981SOL    HW2 2985   2.397   0.678   1.682
  982SOL     OW 2986   3.485   0.805   1.703
  982SOL    HW1 2987   3.392   0.834   1.701
  982SOL    HW2 2988   3.520   0.852   1.624
  983SOL     OW 2989   2.796   0.162   1.820
  983SOL    HW1 2990   2.876   0.186   1.772
  983SOL    HW2 2991   2.783   0.068   1.796
  984SOL     OW 2992   2.466   4.299   1.656
  984SOL    HW1 2993   2.417   4.229   1.609
  984SOL    HW2 2994   2.465   4.372   1.591
  985SOL     OW 2995   2.435   0.897   1.076
  985SOL    HW1 2996   2.487   0.979   1.088
  985SOL    HW2 2997   2.384   0.892   1.159
  986SOL     OW 2998   3.103   0.852   1.056
  986SOL    HW1 2999   3.025   0.819   1.009
  986SOL    HW2 3000   3.173   0.793   1.023
  987SOL     OW 3001   3.084   0.503   0.244
  987SOL    HW1 3002   3.030   0.422   0.253
  987SOL    HW2 3003   3.038   0.565   0.302
  988SOL     OW 3004   2.161   0.220   1.289
  988SOL    HW1 3005   2.163   0.254   1.381
  988SOL    HW2 3006   2.168   0.123   1.305
  989SOL     OW 3007   1.870   1.294   1.278
  989SOL    HW1 3008   1.905   1.250   1.357
  989SOL    HW2 3009   1.889   1.388   1.296
  990SOL     OW 3010   2.547   0.661   1.001
  990SOL    HW1 3011   2.622   0.682   0.944
  990SOL    HW2 3012   2.512   0.750   1.023
  991SOL     OW 3013   3.600   0.984   1.876
  991SOL    HW1 3014   3.556   0.916   1.822
  991SOL    HW2 3015   3.533   1.004   1.944
  992SOL     OW 3016   2.306   0.083   0.637
  992SOL    HW1 3017   2.237   0.141   0.674
  992SOL    HW2 3018   2.254   0.007   0.602
  993SOL     OW 3019   2.862   0.745   0.956
  993SOL    HW1 3020   2.837   0.749   1.051
  993SOL    HW2 3021   2.838   0.652   0.933
  994SOL     OW 3022   2.845   1.527   1.815
  994SOL    HW1 3023   2.825   1.600   1.755
  994SOL    HW2 3024   2.874   1.456   1.754
  995SOL     OW 3025   3.693   1.483   1.564
  995SOL    HW1 3026   3.732   1.511   1.479
  995SOL    HW2 3027   3.767   1.506   1.625
  996SOL     OW 3028   2.220   0.929   1.837
  996SOL    HW1 3029   2.288   0.954   1.901
  996SOL    HW2 3030   2.266   0.864   1.782
  997SOL     OW 3031   2.907   1.346   0.900
  997SOL    HW1 3032   2.910   1.274   0.834
  997SOL    HW2 3033   2.960   1.416   0.857
  998SOL     OW 3034   2.198   0.818   0.958
  998SOL    HW1 3035   2.288   0.842   0.987
  998SOL    HW2 3036   2.195   0.723   0.979
  999SOL     OW 3037   2.192   0.547   1.014
  999SOL    HW1 3038   2.140   0.464   1.015
  999SOL    HW2 3039   2.263   0.523   0.951
 1000SOL     OW 3040   2.994   0.323   1.683
 1000SOL    HW1 3041   2.951   0.380   1.751
 1000SOL    HW2 3042   3.078   0.371   1.670
 1001SOL     OW 3043   3.004   0.182   1.450
 1001SOL    HW1 3044   2.997   0.225   1.538
 1001SOL    HW2 3045   3.044   0.254   1.398
 1002SOL     OW 3046   1.862   1.344   0.172
 1002SOL    HW1 3047   1.771   1.373   0.150
 1002SOL    HW2 3048   1.848   1.251   0.196
 1003SOL     OW 3049   1.963   1.757   0.953
 1003SOL    HW1 3050   1.930   1.689   0.891
 1003SOL    HW2 3051   2.053   1.772   0.917
 1004SOL     OW 3052   2.346   1.540   0.907
 1004SOL    HW1 3053   2.420   1.598   0.935
 1004SOL    HW2 3054   2.392   1.480   0.846
 1005SOL     OW 3055   2.784   0.778   1.210
 1005SOL    HW1 3056   2.860   0.785   1.270
 1005SOL    HW2 3057   2.718   0.738   1.268
 1006SOL     OW 3058   1.829   0.642   1.178
 1006SOL    HW1 3059   1.899   0.644   1.111
 1006SOL    HW2 3060   1.878   0.615   1.258
 1007SOL     OW 3061   2.038   0.523   1.732
 1007SOL    HW1 3062   2.108   0.472   1.689
 1007SOL    HW2 3063   2.039   0.606   1.680
 1008SOL     OW 3064   3.241   0.917   1.669
 1008SOL    HW1 3065   3.260   1.012   1.661
 1008SOL    HW2 3066   3.231   0.893   1.575
 1009SOL     OW 3067   3.466   0.601   1.169
 1009SOL    HW1 3068   3.421   0.566   1.247
 1009SOL    HW2 3069   3.549   0.552   1.169
 1010SOL     OW 3070   2.075   1.562   1.683
 1010SOL    HW1 3071   2.051   1.632   1.746
 1010SOL    HW2 3072   2.101   1.488   1.741
 1011SOL     OW 3073   2.607   0.499   1.212
 1011SOL    HW1 3074   2.538   0.431   1.211
 1011SOL    HW2 3075   2.585   0.553   1.133
 1012SOL     OW 3076   2.683   1.722   1.536
 1012SOL    HW1 3077   2.676   1.653   1.469
 1012SOL    HW2 3078   2.723   1.795   1.485
 1013SOL     OW 3079   2.282   0.482   0.212
 1013SOL    HW1 3080   2.338   0.543   0.160
 1013SOL    HW2 3081   2.199   0.534   0.209
 1014SOL     OW 3082   1.967   1.151   1.499
 1014SOL    HW1 3083   1.981   1.098   1.580
 1014SOL    HW2 3084   2.005   1.091   1.431
 1015SOL     OW 3085   3.115   1.042   1.245
 1015SOL    HW1 3086   3.111   0.974   1.174
 1015SOL    HW2 3087   3.096   1.123   1.193
 1016SOL     OW 3088   3.253   0.708   0.340
 1016SOL    HW1 3089   3.168   0.725   0.383
 1016SOL    HW2 3090   3.230   0.634   0.283
 1017SOL     OW 3091   3.639   1.755   1.163
 1017SOL    HW1 3092   3.705   1.776   1.094
 1017SOL    HW2 3093   3.619   1.661   1.140
 1018SOL     OW 3094   3.125   1.763   1.091
 1018SOL    HW1 3095   3.216   1.796   1.082
 1018SOL    HW2 3096   3.140   1.667   1.098
 1019SOL     OW 3097   1.983   1.140   1.070
 1019SOL    HW1 3098   1.938   1.199   1.132
 1019SOL    HW2 3099   1.908   1.099   1.022
 1020SOL     OW 3100   2.547   1.698   1.765
 1020SOL    HW1 3101   2.480   1.769   1.758
 1020SOL    HW2 3102   2.602   1.715   1.685
 1021SOL     OW 3103   3.575   0.199   0.576
 1021SOL    HW1 3104   3.585   0.152   0.490
 1021SOL    HW2 3105   3.491   0.164   0.609
 1022SOL     OW 3106   3.231   1.659   0.588
 1022SOL    HW1 3107   3.155   1.619   0.542
 1022SOL    HW2 3108   3.199   1.751   0.598
 1023SOL     OW 3109   1.988   1.778   1.831
 1023SOL    HW1 3110   1.949   1.708   1.887
 1023SOL    HW2 3111   2.035   1.832   1.897
 1024SOL     OW 3112   3.099   0.956   0.681
 1024SOL    HW1 3113   3.179   0.907   0.709
 1024SOL    HW2 3114   3.139   1.041   0.654
 1025SOL     OW 3115   2.643   1.292   1.438
 1025SOL    HW1 3116   2.617   1.346   1.515
 1025SOL    HW2 3117   2.566   1.304   1.379
 1026SOL     OW 3118   3.453   1.722   1.408
 1026SOL    HW1 3119   3.522   1.724   1.340
 1026SOL    HW2 3120   3.429   1.817   1.413
 1027SOL     OW 3121   3.684   0.214   1.013
 1027SOL    HW1 3122   3.705   0.147   0.945
 1027SOL    HW2 3123   3.602   0.251   0.974
 1028SOL     OW 3124   2.127   0.260   0.753
 1028SOL    HW1 3125   2.040   0.295   0.726
 1028SOL    HW2 3126   2.129   0.278   0.848
 1029SOL     OW 3127   2.678   1.031   1.387
 1029SOL    HW1 3128   2.681   1.038   1.290
 1029SOL    HW2 3129   2.670   1.125   1.413
 1030SOL     OW 3130   2.207   1.305   1.499
 1030SOL    HW1 3131   2.196   1.383   1.443
 1030SOL    HW2 3132   2.119   1.264   1.499
 1031SOL     OW 3133   3.445   1.307   1.258
 1031SOL    HW1 3134   3.496   1.279   1.335
 1031SOL    HW2 3135   3.384   1.372   1.297
 1032SOL     OW 3136   2.897   1.133   0.741
 1032SOL    HW1 3137   2.829   1.080   0.787
 1032SOL    HW2 3138   2.962   1.065   0.717
 1033SOL     OW 3139   2.903   0.271   0.986
 1033SOL    HW1 3140   2.878   0.208   0.916
 1033SOL    HW2 3141   2.910   0.209   1.062
 1034SOL     OW 3142   2.548   1.491   0.509
 1034SOL    HW1 3143   2.600   1.454   0.435
 1034SOL    HW2 3144   2.484   1.548   0.463
 1035SOL     OW 3145   2.069   1.331   0.355
 1035SOL    HW1 3146   1.998   1.351   0.291
 1035SOL    HW2 3147   2.043   1.387   0.431
 1036SOL     OW 3148   1.983   0.985   1.712
 1036SOL    HW1 3149   1.908   0.987   1.776
 1036SOL    HW2 3150   2.060   0.976   1.771
 1037SOL     OW 3151   2.495   0.223   1.504
 1037SOL    HW1 3152   2.581   0.201   1.461
 1037SOL    HW2 3153   2.526   0.259   1.589
 1038SOL     OW 3154   1.942   0.389   0.053
 1038SOL    HW1 3155   1.895   0.350  -0.023
 1038SOL    HW2 3156   2.031   0.400   0.018
 1039SOL     OW 3157   3.248   0.865   1.405
 1039SOL    HW1 3158   3.189   0.924   1.353
 1039SOL    HW2 3159   3.330   0.871   1.353
 1040SOL     OW 3160   1.910   0.223   0.270
 1040SOL    HW1 3161   1.926   0.288   0.200
 1040SOL    HW2 3162   1.922   0.139   0.223
 1041SOL     OW 3163   2.491   0.851   1.463
 1041SOL    HW1 3164   2.549   0.927   1.445
 1041SOL    HW2 3165   2.554   0.777   1.456
 1042SOL     OW 3166   3.385   1.851   1.071
 1042SOL    HW1 3167   3.416   1.906   0.997
 1042SOL    HW2 3168   3.468   1.816   1.107
 1043SOL     OW 3169   2.552   0.568   1.685
 1043SOL    HW1 3170   2.621   0.612   1.737
 1043SOL    HW2 3171   2.554   0.477   1.720
 1044SOL     OW 3172   3.316   1.178   1.616
 1044SOL    HW1 3173   3.319   1.205   1.710
 1044SOL    HW2 3174   3.403   1.206   1.583
 1045SOL     OW 3175   2.210   1.780   1.567
 1045SOL    HW1 3176   2.122   1.821   1.559
 1045SOL    HW2 3177   2.184   1.690   1.594
 1046SOL     OW 3178   3.464   0.883   1.243
 1046SOL    HW1 3179   3.476   0.802   1.191
 1046SOL    HW2 3180   3.458   0.953   1.175
 1047SOL     OW 3181   3.106   0.250   0.544
 1047SOL    HW1 3182   3.165   0.246   0.467
 1047SOL    HW2 3183   3.132   0.333   0.588
 1048SOL     OW 3184   2.479   0.659   0.648
 1048SOL    HW1 3185   2.499   0.749   0.680
 1048SOL    HW2 3186   2.403   0.677   0.590
 1049SOL     OW 3187   3.592   0.398   1.562
 1049SOL    HW1 3188   3.599   0.470   1.627
 1049SOL    HW2 3189   3.533   0.336   1.608
 1050SOL     OW 3190   3.553   0.950   1.492
 1050SOL    HW1 3191   3.549   1.047   1.490
 1050SOL    HW2 3192   3.534   0.926   1.399
 1051SOL     OW 3193   2.541   1.715   0.952
 1051SOL    HW1 3194   2.519   1.809   0.940
 1051SOL    HW2 3195   2.638   1.715   0.951
 1052SOL     OW 3196   2.730   0.981   0.901
 1052SOL    HW1 3197   2.783   0.903   0.922
 1052SOL    HW2 3198   2.701   1.012   0.988
 1053SOL     OW 3199   3.702   1.578   0.835
 1053SOL    HW1 3200   3.628   1.573   0.772
 1053SOL    HW2 3201   3.666   1.532   0.913
 1054SOL     OW 3202   2.115   1.346   1.850
 1054SOL    HW1 3203   2.025   1.310   1.859
 1054SOL    HW2 3204   2.139   1.355   1.944
 1055SOL     OW 3205   1.981   1.111   0.657
 1055SOL    HW1 3206   2.036   1.097   0.736
 1055SOL    HW2 3207   2.049   1.108   0.587
 1056SOL     OW 3208   2.553   1.442   1.639
 1056SOL    HW1 3209   2.481   1.390   1.680
 1056SOL    HW2 3210   2.551   1.524   1.691
 1057SOL     OW 3211   3.671   0.173   1.312
 1057SOL    HW1 3212   3.575   0.163   1.330
 1057SOL    HW2 3213   3.677   0.147   1.219
 1058SOL     OW 3214   2.255   0.438   0.572
 1058SOL    HW1 3215   2.328   0.398   0.523
 1058SOL    HW2 3216   2.228   0.368   0.634
 1059SOL     OW 3217   3.578   1.503   1.079
 1059SOL    HW1 3218   3.496   1.493   1.027
 1059SOL    HW2 3219   3.573   1.426   1.138
 1060SOL     OW 3220   2.238   0.568   1.279
 1060SOL    HW1 3221   2.301   0.496   1.292
 1060SOL    HW2 3222   2.222   0.564   1.183
 1061SOL     OW 3223   2.733   1.642   0.643
 1061SOL    HW1 3224   2.706   1.732   0.616
 1061SOL    HW2 3225   2.661   1.587   0.605
 1062SOL     OW 3226   3.308   0.307   1.140
 1062SOL    HW1 3227   3.358   0.246   1.197
 1062SOL    HW2 3228   3.236   0.332   1.201
 1063SOL     OW 3229   2.920   0.091   1.186
 1063SOL    HW1 3230   2.917  -0.005   1.169
 1063SOL    HW2 3231   2.966   0.095   1.271
 1064SOL     OW 3232   2.450   1.593   1.286
 1064SOL    HW1 3233   2.444   1.686   1.314
 1064SOL    HW2 3234   2.540   1.587   1.250
 1065SOL     OW 3235   3.159   0.486   0.687
 1065SOL    HW1 3236   3.102   0.564   0.681
 1065SOL    HW2 3237   3.146   0.459   0.780
 1066SOL     OW 3238   3.465   0.327   0.906
 1066SOL    HW1 3239   3.402   0.342   0.979
 1066SOL    HW2 3240   3.449   0.404   0.847
 1067SOL     OW 3241   1.871   1.081   0.286
 1067SOL    HW1 3242   1.966   1.096   0.287
 1067SOL    HW2 3243   1.866   0.984   0.302
 1068SOL     OW 3244   2.090   0.603   1.991
 1068SOL    HW1 3245   2.000   0.604   2.029
 1068SOL    HW2 3246   2.071   0.588   1.897
 1069SOL     OW 3247   2.067   0.324   2.889
 1069SOL    HW1 3248   2.111   0.260   2.948
 1069SOL    HW2 3249   1.979   0.284   2.880
 1070SOL     OW 3250   1.841   0.486   2.524
 1070SOL    HW1 3251   1.749   0.502   2.552
 1070SOL    HW2 3252   1.830   0.406   2.470
 1071SOL     OW 3253   2.433   1.310   3.044
 1071SOL    HW1 3254   2.356   1.335   2.991
 1071SOL    HW2 3255   2.448   1.390   3.096
 1072SOL     OW 3256   3.460   1.561   2.551
 1072SOL    HW1 3257   3.406   1.536   2.629
 1072SOL    HW2 3258   3.391   1.573   2.483
 1073SOL     OW 3259   3.008   0.700   2.537
 1073SOL    HW1 3260   3.057   0.784   2.527
 1073SOL    HW2 3261   2.955   0.719   2.617
 1074SOL     OW 3262   3.662   0.606   2.043
 1074SOL    HW1 3263   3.639   0.607   1.949
 1074SOL    HW2 3264   3.607   0.533   2.077
 1075SOL     OW 3265   2.587   1.112   2.947
 1075SOL    HW1 3266   2.522   1.171   2.989
 1075SOL    HW2 3267   2.625   1.176   2.882
 1076SOL     OW 3268   2.557   0.966   2.509
 1076SOL    HW1 3269   2.627   0.973   2.576
 1076SOL    HW2 3270   2.497   1.039   2.534
 1077SOL     OW 3271   2.212   1.413   2.913
 1077SOL    HW1 3272   2.138   1.367   2.871
 1077SOL    HW2 3273   2.245   1.473   2.842
 1078SOL     OW 3274   3.427   0.515   2.523
 1078SOL    HW1 3275   3.331   0.497   2.527
 1078SOL    HW2 3276   3.431   0.569   2.441
 1079SOL     OW 3277   2.098   1.744   2.314
 1079SOL    HW1 3278   2.122   1.814   2.378
 1079SOL    HW2 3279   2.171   1.751   2.250
 1080SOL     OW 3280   2.096   1.473   2.346
 1080SOL    HW1 3281   2.091   1.570   2.354
 1080SOL    HW2 3282   2.066   1.441   2.432
 1081SOL     OW 3283   2.183   1.113   2.727
 1081SOL    HW1 3284   2.191   1.021   2.757
 1081SOL    HW2 3285   2.124   1.153   2.794
 1082SOL     OW 3286   2.423   0.989   2.037
 1082SOL    HW1 3287   2.473   1.035   1.967
 1082SOL    HW2 3288   2.477   1.013   2.115
 1083SOL     OW 3289   1.994   0.697   2.429
 1083SOL    HW1 3290   1.943   0.621   2.464
 1083SOL    HW2 3291   1.992   0.758   2.506
 1084SOL     OW 3292   3.683   1.776   2.166
 1084SOL    HW1 3293   3.763   1.775   2.223
 1084SOL    HW2 3294   3.689   1.865   2.127
 1085SOL     OW 3295   1.911   1.573   1.980
 1085SOL    HW1 3296   1.893   1.479   1.996
 1085SOL    HW2 3297   1.887   1.614   2.065
 1086SOL     OW 3298   3.574   0.946   2.463
 1086SOL    HW1 3299   3.620   0.888   2.399
 1086SOL    HW2 3300   3.539   1.015   2.404
 1087SOL     OW 3301   3.510   1.139   2.276
 1087SOL    HW1 3302   3.596   1.119   2.234
 1087SOL    HW2 3303   3.531   1.225   2.320
 1088SOL     OW 3304   2.502   1.408   2.578
 1088SOL    HW1 3305   2.461   1.319   2.577
 1088SOL    HW2 3306   2.491   1.434   2.484
 1089SOL     OW 3307   0.963   3.403   0.099
 1089SOL    HW1 3308   1.025   3.339   0.138
 1089SOL    HW2 3309   0.927   3.446   0.178
 1090SOL     OW 3310   2.668   0.042   2.362
 1090SOL    HW1 3311   2.721   0.123   2.346
 1090SOL    HW2 3312   2.578   0.076   2.373
 1091SOL     OW 3313   3.393   1.022   2.060
 1091SOL    HW1 3314   3.342   0.949   2.100
 1091SOL    HW2 3315   3.429   1.067   2.138
 1092SOL     OW 3316   3.293   1.468   2.744
 1092SOL    HW1 3317   3.252   1.469   2.832
 1092SOL    HW2 3318   3.287   1.374   2.720
 1093SOL     OW 3319   3.479   1.855   2.394
 1093SOL    HW1 3320   3.472   1.795   2.318
 1093SOL    HW2 3321   3.498   1.795   2.467
 1094SOL     OW 3322   2.445   0.663   2.131
 1094SOL    HW1 3323   2.447   0.755   2.102
 1094SOL    HW2 3324   2.378   0.666   2.202
 1095SOL     OW 3325   3.159   0.334   2.796
 1095SOL    HW1 3326   3.065   0.306   2.790
 1095SOL    HW2 3327   3.176   0.315   2.890
 1096SOL     OW 3328   3.425   1.700   2.160
 1096SOL    HW1 3329   3.521   1.717   2.153
 1096SOL    HW2 3330   3.408   1.653   2.076
 1097SOL     OW 3331   2.913   0.680   2.279
 1097SOL    HW1 3332   2.935   0.676   2.375
 1097SOL    HW2 3333   2.828   0.632   2.276
 1098SOL     OW 3334   1.974   0.872   2.639
 1098SOL    HW1 3335   2.059   0.864   2.685
 1098SOL    HW2 3336   1.925   0.930   2.700
 1099SOL     OW 3337   2.760   0.328   2.050
 1099SOL    HW1 3338   2.807   0.389   1.989
 1099SOL    HW2 3339   2.752   0.250   1.993
 1100SOL     OW 3340   3.260   1.154   2.407
 1100SOL    HW1 3341   3.342   1.154   2.354
 1100SOL    HW2 3342   3.208   1.226   2.366
 1101SOL     OW 3343   2.377   0.246   2.757
 1101SOL    HW1 3344   2.300   0.225   2.704
 1101SOL    HW2 3345   2.383   0.343   2.747
 1102SOL     OW 3346   2.873   1.473   2.346
 1102SOL    HW1 3347   2.852   1.546   2.284
 1102SOL    HW2 3348   2.831   1.506   2.427
 1103SOL     OW 3349   2.200   1.820   2.736
 1103SOL    HW1 3350   2.249   1.736   2.737
 1103SOL    HW2 3351   2.272   1.886   2.748
 1104SOL     OW 3352   3.714   1.078   2.661
 1104SOL    HW1 3353   3.661   1.035   2.591
 1104SOL    HW2 3354   3.642   1.108   2.721
 1105SOL     OW 3355   2.170   0.961   2.156
 1105SOL    HW1 3356   2.254   0.975   2.109
 1105SOL    HW2 3357   2.156   0.866   2.143
 1106SOL     OW 3358   3.377   0.813   2.603
 1106SOL    HW1 3359   3.411   0.724   2.612
 1106SOL    HW2 3360   3.453   0.861   2.565
 1107SOL     OW 3361   3.052   1.756   2.110
 1107SOL    HW1 3362   2.962   1.740   2.140
 1107SOL    HW2 3363   3.066   1.684   2.045
 1108SOL     OW 3364   3.534   1.366   1.957
 1108SOL    HW1 3365   3.492   1.453   1.948
 1108SOL    HW2 3366   3.464   1.308   1.924
 1109SOL     OW 3367   2.319   1.795   2.155
 1109SOL    HW1 3368   2.367   1.838   2.228
 1109SOL    HW2 3369   2.392   1.749   2.109
 1110SOL     OW 3370   3.293   0.156   2.317
 1110SOL    HW1 3371   3.341   0.101   2.252
 1110SOL    HW2 3372   3.328   0.123   2.402
 1111SOL     OW 3373   2.844   1.705   2.749
 1111SOL    HW1 3374   2.928   1.659   2.728
 1111SOL    HW2 3375   2.783   1.658   2.688
 1112SOL     OW 3376   2.255   0.659   2.328
 1112SOL    HW1 3377   2.258   0.563   2.349
 1112SOL    HW2 3378   2.165   0.681   2.357
 1113SOL     OW 3379   2.482   0.086   1.916
 1113SOL    HW1 3380   2.528   0.025   1.977
 1113SOL    HW2 3381   2.473   0.032   1.836
 1114SOL     OW 3382   2.677   1.301   2.781
 1114SOL    HW1 3383   2.767   1.337   2.771
 1114SOL    HW2 3384   2.626   1.348   2.713
 1115SOL     OW 3385   2.784   0.512   2.754
 1115SOL    HW1 3386   2.763   0.498   2.659
 1115SOL    HW2 3387   2.822   0.425   2.777
 1116SOL     OW 3388   2.390   0.103   2.350
 1116SOL    HW1 3389   2.365   0.012   2.325
 1116SOL    HW2 3390   2.377   0.150   2.265
 1117SOL     OW 3391   3.312   1.216   1.886
 1117SOL    HW1 3392   3.337   1.140   1.943
 1117SOL    HW2 3393   3.233   1.250   1.932
 1118SOL     OW 3394   2.114   0.100   2.040
 1118SOL    HW1 3395   2.190   0.143   2.084
 1118SOL    HW2 3396   2.125   0.009   2.070
 1119SOL     OW 3397   2.826   0.262   2.307
 1119SOL    HW1 3398   2.804   0.285   2.215
 1119SOL    HW2 3399   2.922   0.281   2.310
 1120SOL     OW 3400   3.065   1.587   2.641
 1120SOL    HW1 3401   3.085   1.657   2.575
 1120SOL    HW2 3402   3.154   1.562   2.670
 1121SOL     OW 3403   2.376   1.169   2.549
 1121SOL    HW1 3404   2.311   1.150   2.619
 1121SOL    HW2 3405   2.319   1.167   2.469
 1122SOL     OW 3406   3.108   1.801   2.471
 1122SOL    HW1 3407   3.154   1.874   2.424
 1122SOL    HW2 3408   3.033   1.849   2.510
 1123SOL     OW 3409   2.896   0.490   1.877
 1123SOL    HW1 3410   2.853   0.573   1.848
 1123SOL    HW2 3411   2.953   0.519   1.950
 1124SOL     OW 3412   4.102   2.699   0.178
 1124SOL    HW1 3413   4.195   2.726   0.165
 1124SOL    HW2 3414   4.098   2.685   0.274
 1125SOL     OW 3415   2.746   0.459   2.490
 1125SOL    HW1 3416   2.698   0.504   2.418
 1125SOL    HW2 3417   2.775   0.378   2.445
 1126SOL     OW 3418   2.758   0.074   2.647
 1126SOL    HW1 3419   2.738   0.054   2.554
 1126SOL    HW2 3420   2.680   0.041   2.693
 1127SOL     OW 3421   3.255   1.208   2.678
 1127SOL    HW1 3422   3.165   1.173   2.690
 1127SOL    HW2 3423   3.268   1.190   2.583
 1128SOL     OW 3424   3.674   0.787   2.247
 1128SOL    HW1 3425   3.743   0.742   2.302
 1128SOL    HW2 3426   3.678   0.733   2.166
 1129SOL     OW 3427   2.389   1.463   2.067
 1129SOL    HW1 3428   2.304   1.417   2.078
 1129SOL    HW2 3429   2.439   1.405   2.007
 1130SOL     OW 3430   3.578   1.353   2.413
 1130SOL    HW1 3431   3.666   1.348   2.455
 1130SOL    HW2 3432   3.538   1.430   2.458
 1131SOL     OW 3433   3.240   0.537   1.915
 1131SOL    HW1 3434   3.174   0.533   1.987
 1131SOL    HW2 3435   3.294   0.459   1.935
 1132SOL     OW 3436   2.348   0.216   2.111
 1132SOL    HW1 3437   2.403   0.176   2.041
 1132SOL    HW2 3438   2.342   0.309   2.081
 1133SOL     OW 3439   3.501   1.162   2.804
 1133SOL    HW1 3440   3.482   1.183   2.897
 1133SOL    HW2 3441   3.413   1.173   2.762
 1134SOL     OW 3442   2.594   1.053   2.248
 1134SOL    HW1 3443   2.576   1.020   2.338
 1134SOL    HW2 3444   2.677   1.004   2.227
 1135SOL     OW 3445   0.184   2.997   0.096
 1135SOL    HW1 3446   0.237   2.945   0.158
 1135SOL    HW2 3447   0.100   2.947   0.096
 1136SOL     OW 3448   4.083   3.694   0.127
 1136SOL    HW1 3449   4.080   3.757   0.200
 1136SOL    HW2 3450   4.177   3.673   0.122
 1137SOL     OW 3451   2.197   1.162   2.340
 1137SOL    HW1 3452   2.193   1.228   2.269
 1137SOL    HW2 3453   2.186   1.079   2.289
 1138SOL     OW 3454   2.372   0.523   2.732
 1138SOL    HW1 3455   2.393   0.584   2.659
 1138SOL    HW2 3456   2.444   0.544   2.795
 1139SOL     OW 3457   3.122   1.367   2.302
 1139SOL    HW1 3458   3.176   1.446   2.324
 1139SOL    HW2 3459   3.032   1.399   2.324
 1140SOL     OW 3460   3.124   1.420   2.960
 1140SOL    HW1 3461   3.121   1.347   3.024
 1140SOL    HW2 3462   3.053   1.396   2.897
 1141SOL     OW 3463   3.431   0.655   2.292
 1141SOL    HW1 3464   3.360   0.707   2.250
 1141SOL    HW2 3465   3.509   0.711   2.275
 1142SOL     OW 3466   4.349   3.632   0.112
 1142SOL    HW1 3467   4.351   3.611   0.016
 1142SOL    HW2 3468   4.444   3.651   0.128
 1143SOL     OW 3469   2.464   0.865   2.915
 1143SOL    HW1 3470   2.506   0.953   2.921
 1143SOL    HW2 3471   2.423   0.857   3.003
 1144SOL     OW 3472   3.122   0.763   2.944
 1144SOL    HW1 3473   3.093   0.836   3.004
 1144SOL    HW2 3474   3.183   0.809   2.884
 1145SOL     OW 3475   3.051   0.523   2.107
 1145SOL    HW1 3476   3.069   0.452   2.171
 1145SOL    HW2 3477   3.004   0.587   2.164
 1146SOL     OW 3478   3.985   3.469   0.028
 1146SOL    HW1 3479   4.053   3.413   0.072
 1146SOL    HW2 3480   4.010   3.557   0.066
 1147SOL     OW 3481   2.563   0.594   2.909
 1147SOL    HW1 3482   2.645   0.577   2.860
 1147SOL    HW2 3483   2.552   0.691   2.903
 1148SOL     OW 3484   2.195   0.036   2.533
 1148SOL    HW1 3485   2.268   0.067   2.477
 1148SOL    HW2 3486   2.241  -0.026   2.592
 1149SOL     OW 3487   3.507   0.415   2.162
 1149SOL    HW1 3488   3.554   0.352   2.221
 1149SOL    HW2 3489   3.469   0.478   2.225
 1150SOL     OW 3490   2.891   0.756   2.783
 1150SOL    HW1 3491   2.964   0.747   2.847
 1150SOL    HW2 3492   2.852   0.666   2.782
 1151SOL     OW 3493   3.375   0.304   1.956
 1151SOL    HW1 3494   3.341   0.220   1.990
 1151SOL    HW2 3495   3.430   0.335   2.031
 1152SOL     OW 3496   3.164   0.803   1.903
 1152SOL    HW1 3497   3.197   0.712   1.891
 1152SOL    HW2 3498   3.192   0.846   1.819
 1153SOL     OW 3499   2.945   1.366   2.758
 1153SOL    HW1 3500   2.963   1.282   2.711
 1153SOL    HW2 3501   2.980   1.434   2.697
 1154SOL     OW 3502   2.205   0.847   2.797
 1154SOL    HW1 3503   2.299   0.850   2.819
 1154SOL    HW2 3504   2.180   0.759   2.830
 1155SOL     OW 3505   2.154   0.577   2.879
 1155SOL    HW1 3506   2.119   0.486   2.887
 1155SOL    HW2 3507   2.231   0.561   2.821
 1156SOL     OW 3508   1.885   1.295   2.020
 1156SOL    HW1 3509   1.792   1.317   1.996
 1156SOL    HW2 3510   1.875   1.206   2.060
 1157SOL     OW 3511   6.270   1.807   2.814
 1157SOL    HW1 3512   6.233   1.740   2.752
 1157SOL    HW2 3513   6.363   1.810   2.785
 1158SOL     OW 3514   2.350   1.583   2.735
 1158SOL    HW1 3515   2.423   1.648   2.743
 1158SOL    HW2 3516   2.393   1.515   2.679
 1159SOL     OW 3517   6.216   0.618   2.979
 1159SOL    HW1 3518   6.302   0.623   2.935
 1159SOL    HW2 3519   6.240   0.594   3.070
 1160SOL     OW 3520   2.678   0.545   2.227
 1160SOL    HW1 3521   2.688   0.469   2.167
 1160SOL    HW2 3522   2.596   0.587   2.195
 1161SOL     OW 3523   2.313   0.457   1.992
 1161SOL    HW1 3524   2.377   0.521   2.028
 1161SOL    HW2 3525   2.231   0.510   2.000
 1162SOL     OW 3526   3.239   0.816   2.167
 1162SOL    HW1 3527   3.157   0.814   2.217
 1162SOL    HW2 3528   3.207   0.807   2.075
 1163SOL     OW 3529   3.557   1.674   2.957
 1163SOL    HW1 3530   3.637   1.726   2.937
 1163SOL    HW2 3531   3.581   1.589   2.919
 1164SOL     OW 3532   6.319   1.239   2.865
 1164SOL    HW1 3533   6.279   1.258   2.951
 1164SOL    HW2 3534   6.252   1.180   2.825
 1165SOL     OW 3535   3.671   0.239   2.298
 1165SOL    HW1 3536   3.710   0.219   2.210
 1165SOL    HW2 3537   3.691   0.156   2.345
 1166SOL     OW 3538   3.263   1.597   2.363
 1166SOL    HW1 3539   3.308   1.632   2.283
 1166SOL    HW2 3540   3.202   1.669   2.386
 1167SOL     OW 3541   3.149   0.932   2.524
 1167SOL    HW1 3542   3.230   0.889   2.557
 1167SOL    HW2 3543   3.186   1.005   2.470
 1168SOL     OW 3544   2.551   1.683   2.036
 1168SOL    HW1 3545   2.562   1.682   1.939
 1168SOL    HW2 3546   2.502   1.600   2.050
 1169SOL     OW 3547   3.639   0.229   2.864
 1169SOL    HW1 3548   3.674   0.158   2.809
 1169SOL    HW2 3549   3.563   0.260   2.810
 1170SOL     OW 3550   2.081   0.377   2.616
 1170SOL    HW1 3551   2.005   0.435   2.598
 1170SOL    HW2 3552   2.084   0.374   2.713
 1171SOL     OW 3553   3.095   1.550   1.934
 1171SOL    HW1 3554   3.099   1.458   1.964
 1171SOL    HW2 3555   3.009   1.553   1.887
 1172SOL     OW 3556   2.816   0.920   2.189
 1172SOL    HW1 3557   2.848   0.914   2.097
 1172SOL    HW2 3558   2.852   0.838   2.228
 1173SOL     OW 3559   3.373   1.591   1.919
 1173SOL    HW1 3560   3.276   1.583   1.910
 1173SOL    HW2 3561   3.402   1.604   1.826
 1174SOL     OW 3562   2.990   1.114   2.658
 1174SOL    HW1 3563   2.901   1.077   2.675
 1174SOL    HW2 3564   3.031   1.043   2.606
 1175SOL     OW 3565   2.894   0.261   2.798
 1175SOL    HW1 3566   2.851   0.196   2.740
 1175SOL    HW2 3567   2.874   0.225   2.887
 1176SOL     OW 3568   2.498   1.475   2.321
 1176SOL    HW1 3569   2.567   1.423   2.276
 1176SOL    HW2 3570   2.436   1.491   2.249
 1177SOL     OW 3571   2.140   1.344   2.123
 1177SOL    HW1 3572   2.047   1.322   2.101
 1177SOL    HW2 3573   2.127   1.400   2.203
 1178SOL     OW 3574   1.835   0.365   1.817
 1178SOL    HW1 3575   1.830   0.392   1.909
 1178SOL    HW2 3576   1.908   0.421   1.784
 1179SOL     OW 3577   1.858   0.090   2.162
 1179SOL    HW1 3578   1.932   0.113   2.103
 1179SOL    HW2 3579   1.906   0.035   2.228
 1180SOL     OW 3580   3.096   1.296   2.039
 1180SOL    HW1 3581   3.013   1.247   2.042
 1180SOL    HW2 3582   3.111   1.318   2.133
 1181SOL     OW 3583   3.351   1.843   2.887
 1181SOL    HW1 3584   3.400   1.900   2.826
 1181SOL    HW2 3585   3.417   1.777   2.913
 1182SOL     OW 3586   3.095   0.340   2.308
 1182SOL    HW1 3587   3.164   0.271   2.305
 1182SOL    HW2 3588   3.116   0.384   2.392
 1183SOL     OW 3589   2.430   0.713   2.544
 1183SOL    HW1 3590   2.476   0.797   2.530
 1183SOL    HW2 3591   2.374   0.705   2.465
 1184SOL     OW 3592   1.503   3.130   0.388
 1184SOL    HW1 3593   1.582   3.181   0.364
 1184SOL    HW2 3594   1.472   3.100   0.302
 1185SOL     OW 3595   2.638   1.379   1.943
 1185SOL    HW1 3596   2.666   1.367   2.035
 1185SOL    HW2 3597   2.707   1.437   1.906
 1186SOL     OW 3598   2.536   1.778   2.737
 1186SOL    HW1 3599   2.495   1.866   2.725
 1186SOL    HW2 3600   2.617   1.800   2.784
 1187SOL     OW 3601   2.751   0.980   2.715
 1187SOL    HW1 3602   2.795   0.897   2.740
 1187SOL    HW2 3603   2.704   1.004   2.795
 1188SOL     OW 3604   2.910   0.898   1.939
 1188SOL    HW1 3605   2.900   0.977   1.883
 1188SOL    HW2 3606   3.003   0.872   1.923
 1189SOL     OW 3607   3.706   1.556   2.688
 1189SOL    HW1 3608   3.621   1.562   2.640
 1189SOL    HW2 3609   3.743   1.473   2.655
 1190SOL     OW 3610   2.033   1.270   2.536
 1190SOL    HW1 3611   2.069   1.225   2.613
 1190SOL    HW2 3612   2.084   1.229   2.464
 1191SOL     OW 3613   2.255   0.400   2.403
 1191SOL    HW1 3614   2.305   0.317   2.401
 1191SOL    HW2 3615   2.197   0.389   2.481
 1192SOL     OW 3616   4.351   2.768   0.086
 1192SOL    HW1 3617   4.430   2.712   0.102
 1192SOL    HW2 3618   4.343   2.765  -0.011
 1193SOL     OW 3619   2.709   1.592   2.541
 1193SOL    HW1 3620   2.668   1.665   2.494
 1193SOL    HW2 3621   2.634   1.533   2.557
 1194SOL     OW 3622   2.743   4.256   2.958
 1194SOL    HW1 3623   2.660   4.285   2.917
 1194SOL    HW2 3624   2.788   4.341   2.974
 1195SOL     OW 3625   2.685   1.315   2.202
 1195SOL    HW1 3626   2.660   1.223   2.224
 1195SOL    HW2 3627   2.759   1.334   2.262
 1196SOL     OW 3628   3.191   0.045   1.956
 1196SOL    HW1 3629   3.263   0.017   2.016
 1196SOL    HW2 3630   3.116   0.050   2.015
 1197SOL     OW 3631   3.160   0.469   2.546
 1197SOL    HW1 3632   3.100   0.546   2.548
 1197SOL    HW2 3633   3.146   0.428   2.633
 1198SOL     OW 3634   3.424   0.307   2.708
 1198SOL    HW1 3635   3.333   0.315   2.742
 1198SOL    HW2 3636   3.432   0.386   2.652
 1199SOL     OW 3637   1.904   1.056   2.159
 1199SOL    HW1 3638   2.000   1.040   2.152
 1199SOL    HW2 3639   1.873   0.965   2.175
 1200SOL     OW 3640   2.787   1.692   2.199
 1200SOL    HW1 3641   2.710   1.687   2.140
 1200SOL    HW2 3642   2.759   1.759   2.264
 1201SOL     OW 3643   1.975   2.496   0.111
 1201SOL    HW1 3644   1.887   2.505   0.154
 1201SOL    HW2 3645   1.955   2.436   0.037
 1202SOL     OW 3646   2.081   2.162   0.993
 1202SOL    HW1 3647   2.111   2.123   1.077
 1202SOL    HW2 3648   1.994   2.117   0.982
 1203SOL     OW 3649   1.832   2.271   0.661
 1203SOL    HW1 3650   1.744   2.289   0.699
 1203SOL    HW2 3651   1.810   2.205   0.593
 1204SOL     OW 3652   2.423   3.181   1.231
 1204SOL    HW1 3653   2.342   3.191   1.178
 1204SOL    HW2 3654   2.451   3.274   1.241
 1205SOL     OW 3655   3.486   3.371   0.766
 1205SOL    HW1 3656   3.439   3.348   0.849
 1205SOL    HW2 3657   3.414   3.411   0.713
 1206SOL     OW 3658   3.007   2.555   0.702
 1206SOL    HW1 3659   3.048   2.642   0.686
 1206SOL    HW2 3660   2.967   2.569   0.790
 1207SOL     OW 3661   3.660   2.416   0.304
 1207SOL    HW1 3662   3.650   2.474   0.227
 1207SOL    HW2 3663   3.598   2.457   0.368
 1208SOL     OW 3664   2.580   2.993   1.105
 1208SOL    HW1 3665   2.519   3.044   1.162
 1208SOL    HW2 3666   2.618   3.066   1.053
 1209SOL     OW 3667   2.770   2.564   1.793
 1209SOL    HW1 3668   2.810   2.618   1.864
 1209SOL    HW2 3669   2.765   2.630   1.722
 1210SOL     OW 3670   2.559   2.827   0.652
 1210SOL    HW1 3671   2.628   2.832   0.720
 1210SOL    HW2 3672   2.498   2.898   0.679
 1211SOL     OW 3673   2.536   3.023   1.913
 1211SOL    HW1 3674   2.551   3.080   1.990
 1211SOL    HW2 3675   2.472   3.074   1.860
 1212SOL     OW 3676   2.200   3.246   1.088
 1212SOL    HW1 3677   2.133   3.186   1.049
 1212SOL    HW2 3678   2.232   3.297   1.010
 1213SOL     OW 3679   2.338   2.220   1.418
 1213SOL    HW1 3680   2.415   2.165   1.441
 1213SOL    HW2 3681   2.265   2.171   1.460
 1214SOL     OW 3682   3.438   2.287   0.729
 1214SOL    HW1 3683   3.356   2.286   0.677
 1214SOL    HW2 3684   3.418   2.356   0.794
 1215SOL     OW 3685   2.025   3.621   0.483
 1215SOL    HW1 3686   2.090   3.672   0.534
 1215SOL    HW2 3687   2.026   3.535   0.531
 1216SOL     OW 3688   2.003   3.378   0.610
 1216SOL    HW1 3689   1.943   3.397   0.684
 1216SOL    HW2 3690   2.025   3.284   0.628
 1217SOL     OW 3691   2.163   2.950   0.846
 1217SOL    HW1 3692   2.178   2.860   0.879
 1217SOL    HW2 3693   2.110   2.989   0.918
 1218SOL     OW 3694   2.388   3.672   1.422
 1218SOL    HW1 3695   2.315   3.650   1.483
 1218SOL    HW2 3696   2.428   3.751   1.462
 1219SOL     OW 3697   3.422   1.991   1.402
 1219SOL    HW1 3698   3.497   2.023   1.348
 1219SOL    HW2 3699   3.388   2.072   1.442
 1220SOL     OW 3700   1.953   2.517   0.597
 1220SOL    HW1 3701   1.916   2.430   0.621
 1220SOL    HW2 3702   1.963   2.561   0.683
 1221SOL     OW 3703   3.778   3.685   0.400
 1221SOL    HW1 3704   3.857   3.632   0.424
 1221SOL    HW2 3705   3.811   3.738   0.325
 1222SOL     OW 3706   1.917   3.401   0.071
 1222SOL    HW1 3707   1.924   3.306   0.092
 1222SOL    HW2 3708   1.886   3.437   0.156
 1223SOL     OW 3709   3.542   2.757   0.595
 1223SOL    HW1 3710   3.626   2.770   0.642
 1223SOL    HW2 3711   3.529   2.841   0.547
 1224SOL     OW 3712   3.478   2.997   0.459
 1224SOL    HW1 3713   3.514   3.026   0.373
 1224SOL    HW2 3714   3.530   3.050   0.522
 1225SOL     OW 3715   1.957   2.640   1.516
 1225SOL    HW1 3716   2.007   2.700   1.458
 1225SOL    HW2 3717   1.871   2.687   1.522
 1226SOL     OW 3718   2.487   3.264   0.750
 1226SOL    HW1 3719   2.453   3.176   0.726
 1226SOL    HW2 3720   2.494   3.308   0.663
 1227SOL     OW 3721   2.680   1.901   0.586
 1227SOL    HW1 3722   2.718   1.978   0.538
 1227SOL    HW2 3723   2.585   1.910   0.566
 1228SOL     OW 3724   2.073   2.811   1.332
 1228SOL    HW1 3725   2.162   2.773   1.315
 1228SOL    HW2 3726   2.037   2.816   1.243
 1229SOL     OW 3727   2.227   2.125   1.863
 1229SOL    HW1 3728   2.259   2.204   1.911
 1229SOL    HW2 3729   2.154   2.163   1.811
 1230SOL     OW 3730   3.358   3.288   0.996
 1230SOL    HW1 3731   3.301   3.309   1.072
 1230SOL    HW2 3732   3.314   3.208   0.960
 1231SOL     OW 3733   3.529   3.592   0.461
 1231SOL    HW1 3734   3.621   3.618   0.438
 1231SOL    HW2 3735   3.544   3.504   0.498
 1232SOL     OW 3736   3.132   2.251   0.925
 1232SOL    HW1 3737   3.042   2.216   0.938
 1232SOL    HW2 3738   3.182   2.196   0.990
 1233SOL     OW 3739   2.657   2.454   1.414
 1233SOL    HW1 3740   2.627   2.422   1.502
 1233SOL    HW2 3741   2.630   2.380   1.356
 1234SOL     OW 3742   3.231   2.354   1.661
 1234SOL    HW1 3743   3.233   2.392   1.751
 1234SOL    HW2 3744   3.292   2.279   1.670
 1235SOL     OW 3745   2.788   2.770   1.602
 1235SOL    HW1 3746   2.846   2.712   1.549
 1235SOL    HW2 3747   2.744   2.821   1.532
 1236SOL     OW 3748   2.862   2.247   1.210
 1236SOL    HW1 3749   2.766   2.254   1.226
 1236SOL    HW2 3750   2.865   2.211   1.120
 1237SOL     OW 3751   2.870   2.512   0.473
 1237SOL    HW1 3752   2.930   2.526   0.549
 1237SOL    HW2 3753   2.785   2.506   0.518
 1238SOL     OW 3754   1.969   2.675   0.816
 1238SOL    HW1 3755   2.057   2.678   0.857
 1238SOL    HW2 3756   1.920   2.739   0.870
 1239SOL     OW 3757   1.941   3.738   1.565
 1239SOL    HW1 3758   1.934   3.722   1.661
 1239SOL    HW2 3759   1.857   3.703   1.532
 1240SOL     OW 3760   2.737   2.151   0.104
 1240SOL    HW1 3761   2.791   2.200   0.168
 1240SOL    HW2 3762   2.801   2.086   0.069
 1241SOL     OW 3763   3.252   3.023   0.609
 1241SOL    HW1 3764   3.331   3.018   0.552
 1241SOL    HW2 3765   3.208   3.105   0.578
 1242SOL     OW 3766   2.423   1.965   0.922
 1242SOL    HW1 3767   2.422   1.997   1.015
 1242SOL    HW2 3768   2.429   2.047   0.873
 1243SOL     OW 3769   2.876   3.342   0.470
 1243SOL    HW1 3770   2.806   3.278   0.452
 1243SOL    HW2 3771   2.828   3.411   0.520
 1244SOL     OW 3772   2.189   3.652   0.909
 1244SOL    HW1 3773   2.233   3.565   0.897
 1244SOL    HW2 3774   2.266   3.711   0.923
 1245SOL     OW 3775   3.629   2.966   0.893
 1245SOL    HW1 3776   3.597   3.018   0.817
 1245SOL    HW2 3777   3.545   2.932   0.931
 1246SOL     OW 3778   3.329   2.619   0.698
 1246SOL    HW1 3779   3.341   2.571   0.782
 1246SOL    HW2 3780   3.413   2.668   0.687
 1247SOL     OW 3781   2.342   3.178   1.770
 1247SOL    HW1 3782   2.320   3.185   1.674
 1247SOL    HW2 3783   2.254   3.154   1.804
 1248SOL     OW 3784   2.107   2.096   1.506
 1248SOL    HW1 3785   2.081   2.157   1.577
 1248SOL    HW2 3786   2.051   2.019   1.527
 1249SOL     OW 3787   2.121   3.654   1.190
 1249SOL    HW1 3788   2.157   3.576   1.235
 1249SOL    HW2 3789   2.145   3.639   1.098
 1250SOL     OW 3790   2.757   3.545   0.852
 1250SOL    HW1 3791   2.845   3.505   0.862
 1250SOL    HW2 3792   2.737   3.526   0.758
 1251SOL     OW 3793   2.228   2.578   0.471
 1251SOL    HW1 3794   2.222   2.482   0.488
 1251SOL    HW2 3795   2.139   2.606   0.494
 1252SOL     OW 3796   3.365   2.120   1.713
 1252SOL    HW1 3797   3.363   2.135   1.810
 1252SOL    HW2 3798   3.318   2.036   1.705
 1253SOL     OW 3799   2.626   2.131   1.734
 1253SOL    HW1 3800   2.709   2.079   1.738
 1253SOL    HW2 3801   2.578   2.096   1.810
 1254SOL     OW 3802   2.727   3.445   1.164
 1254SOL    HW1 3803   2.696   3.394   1.087
 1254SOL    HW2 3804   2.752   3.373   1.225
 1255SOL     OW 3805   3.145   2.453   1.425
 1255SOL    HW1 3806   3.185   2.429   1.511
 1255SOL    HW2 3807   3.217   2.505   1.382
 1256SOL     OW 3808   2.651   3.231   0.974
 1256SOL    HW1 3809   2.741   3.233   0.937
 1256SOL    HW2 3810   2.596   3.249   0.896
 1257SOL     OW 3811   2.773   2.374   0.898
 1257SOL    HW1 3812   2.743   2.360   0.805
 1257SOL    HW2 3813   2.806   2.286   0.921
 1258SOL     OW 3814   2.421   1.931   0.517
 1258SOL    HW1 3815   2.333   1.926   0.561
 1258SOL    HW2 3816   2.419   2.021   0.478
 1259SOL     OW 3817   2.805   2.122   0.488
 1259SOL    HW1 3818   2.807   2.177   0.407
 1259SOL    HW2 3819   2.901   2.110   0.503
 1260SOL     OW 3820   2.910   2.587   1.442
 1260SOL    HW1 3821   2.844   2.516   1.444
 1260SOL    HW2 3822   2.994   2.538   1.438
 1261SOL     OW 3823   3.023   3.476   0.840
 1261SOL    HW1 3824   3.059   3.539   0.774
 1261SOL    HW2 3825   3.061   3.510   0.923
 1262SOL     OW 3826   2.371   3.023   0.690
 1262SOL    HW1 3827   2.301   2.999   0.754
 1262SOL    HW2 3828   2.321   3.025   0.606
 1263SOL     OW 3829   3.102   3.678   0.662
 1263SOL    HW1 3830   3.131   3.734   0.588
 1263SOL    HW2 3831   3.026   3.728   0.696
 1264SOL     OW 3832   1.964   2.404   1.378
 1264SOL    HW1 3833   2.060   2.405   1.361
 1264SOL    HW2 3834   1.953   2.481   1.436
 1265SOL     OW 3835   2.411   2.046   1.178
 1265SOL    HW1 3836   2.429   1.973   1.240
 1265SOL    HW2 3837   2.318   2.064   1.199
 1266SOL     OW 3838   2.694   2.323   0.645
 1266SOL    HW1 3839   2.619   2.352   0.591
 1266SOL    HW2 3840   2.727   2.246   0.596
 1267SOL     OW 3841   2.883   1.935   0.766
 1267SOL    HW1 3842   2.810   1.927   0.702
 1267SOL    HW2 3843   2.871   1.854   0.819
 1268SOL     OW 3844   3.237   3.065   0.880
 1268SOL    HW1 3845   3.142   3.042   0.883
 1268SOL    HW2 3846   3.254   3.057   0.784
 1269SOL     OW 3847   3.318   2.455   0.921
 1269SOL    HW1 3848   3.249   2.386   0.933
 1269SOL    HW2 3849   3.380   2.435   0.994
 1270SOL     OW 3850   3.747   2.713   0.350
 1270SOL    HW1 3851   3.772   2.654   0.424
 1270SOL    HW2 3852   3.791   2.669   0.275
 1271SOL     OW 3853   3.581   3.131   0.677
 1271SOL    HW1 3854   3.677   3.147   0.668
 1271SOL    HW2 3855   3.547   3.219   0.703
 1272SOL     OW 3856   2.421   2.172   0.398
 1272SOL    HW1 3857   2.435   2.142   0.306
 1272SOL    HW2 3858   2.482   2.248   0.401
 1273SOL     OW 3859   2.782   3.235   1.327
 1273SOL    HW1 3860   2.698   3.205   1.368
 1273SOL    HW2 3861   2.845   3.180   1.376
 1274SOL     OW 3862   2.992   3.208   1.151
 1274SOL    HW1 3863   2.910   3.213   1.203
 1274SOL    HW2 3864   2.959   3.211   1.060
 1275SOL     OW 3865   3.394   2.871   0.992
 1275SOL    HW1 3866   3.327   2.804   1.014
 1275SOL    HW2 3867   3.338   2.944   0.960
 1276SOL     OW 3868   2.781   1.927   1.376
 1276SOL    HW1 3869   2.807   1.914   1.283
 1276SOL    HW2 3870   2.865   1.959   1.414
 1277SOL     OW 3871   2.800   2.950   1.817
 1277SOL    HW1 3872   2.708   2.973   1.841
 1277SOL    HW2 3873   2.789   2.899   1.735
 1278SOL     OW 3874   2.495   2.934   0.397
 1278SOL    HW1 3875   2.524   2.888   0.478
 1278SOL    HW2 3876   2.526   2.875   0.327
 1279SOL     OW 3877   2.306   2.683   1.284
 1279SOL    HW1 3878   2.371   2.684   1.357
 1279SOL    HW2 3879   2.274   2.591   1.288
 1280SOL     OW 3880   3.109   2.210   1.309
 1280SOL    HW1 3881   3.127   2.297   1.349
 1280SOL    HW2 3882   3.018   2.224   1.274
 1281SOL     OW 3883   1.932   3.407   1.353
 1281SOL    HW1 3884   1.896   3.482   1.303
 1281SOL    HW2 3885   2.029   3.420   1.344
 1282SOL     OW 3886   2.229   3.031   0.450
 1282SOL    HW1 3887   2.211   3.115   0.404
 1282SOL    HW2 3888   2.312   3.002   0.408
 1283SOL     OW 3889   2.363   2.404   0.837
 1283SOL    HW1 3890   2.395   2.455   0.760
 1283SOL    HW2 3891   2.434   2.419   0.902
 1284SOL     OW 3892   3.137   3.256   0.544
 1284SOL    HW1 3893   3.184   3.339   0.561
 1284SOL    HW2 3894   3.048   3.285   0.520
 1285SOL     OW 3895   3.207   3.350   1.218
 1285SOL    HW1 3896   3.205   3.363   1.314
 1285SOL    HW2 3897   3.129   3.292   1.203
 1286SOL     OW 3898   3.462   2.527   0.467
 1286SOL    HW1 3899   3.392   2.527   0.534
 1286SOL    HW2 3900   3.506   2.610   0.490
 1287SOL     OW 3901   2.198   3.405   1.302
 1287SOL    HW1 3902   2.194   3.343   1.226
 1287SOL    HW2 3903   2.294   3.425   1.304
 1288SOL     OW 3904   2.348   2.563   1.671
 1288SOL    HW1 3905   2.392   2.611   1.598
 1288SOL    HW2 3906   2.413   2.491   1.685
 1289SOL     OW 3907   2.842   1.976   1.755
 1289SOL    HW1 3908   2.914   2.040   1.743
 1289SOL    HW2 3909   2.884   1.894   1.723
 1290SOL     OW 3910   2.360   1.904   1.768
 1290SOL    HW1 3911   2.306   1.865   1.697
 1290SOL    HW2 3912   2.309   1.985   1.789
 1291SOL     OW 3913   2.461   2.738   1.065
 1291SOL    HW1 3914   2.501   2.826   1.078
 1291SOL    HW2 3915   2.410   2.727   1.148
 1292SOL     OW 3916   3.198   2.678   1.035
 1292SOL    HW1 3917   3.105   2.673   1.013
 1292SOL    HW2 3918   3.235   2.600   0.989
 1293SOL     OW 3919   2.141   2.046   1.233
 1293SOL    HW1 3920   2.123   2.074   1.325
 1293SOL    HW2 3921   2.110   1.954   1.235
 1294SOL     OW 3922   1.919   3.143   1.278
 1294SOL    HW1 3923   1.957   3.102   1.357
 1294SOL    HW2 3924   1.921   3.238   1.301
 1295SOL     OW 3925   2.544   2.467   1.030
 1295SOL    HW1 3926   2.631   2.456   0.988
 1295SOL    HW2 3927   2.535   2.564   1.038
 1296SOL     OW 3928   2.174   1.917   0.628
 1296SOL    HW1 3929   2.136   2.004   0.652
 1296SOL    HW2 3930   2.180   1.873   0.714
 1297SOL     OW 3931   2.892   2.608   0.955
 1297SOL    HW1 3932   2.863   2.621   1.048
 1297SOL    HW2 3933   2.854   2.520   0.936
 1298SOL     OW 3934   3.743   3.499   1.593
 1298SOL    HW1 3935   3.762   3.464   1.504
 1298SOL    HW2 3936   3.811   3.453   1.646
 1299SOL     OW 3937   2.233   2.764   1.820
 1299SOL    HW1 3938   2.293   2.776   1.895
 1299SOL    HW2 3939   2.276   2.694   1.769
 1300SOL     OW 3940   2.907   3.232   0.891
 1300SOL    HW1 3941   2.941   3.153   0.844
 1300SOL    HW2 3942   2.959   3.305   0.854
 1301SOL     OW 3943   2.206   2.694   0.954
 1301SOL    HW1 3944   2.299   2.708   0.979
 1301SOL    HW2 3945   2.191   2.603   0.985
 1302SOL     OW 3946   2.161   2.417   1.011
 1302SOL    HW1 3947   2.125   2.326   1.004
 1302SOL    HW2 3948   2.231   2.413   0.943
 1303SOL     OW 3949   3.010   2.188   1.691
 1303SOL    HW1 3950   2.958   2.236   1.759
 1303SOL    HW2 3951   3.082   2.251   1.675
 1304SOL     OW 3952   3.019   2.015   1.479
 1304SOL    HW1 3953   3.013   2.076   1.555
 1304SOL    HW2 3954   3.062   2.071   1.413
 1305SOL     OW 3955   1.918   3.150   0.205
 1305SOL    HW1 3956   1.822   3.168   0.194
 1305SOL    HW2 3957   1.917   3.069   0.261
 1306SOL     OW 3958   1.913   3.641   0.938
 1306SOL    HW1 3959   1.886   3.564   0.884
 1306SOL    HW2 3960   2.009   3.646   0.921
 1307SOL     OW 3961   2.323   3.411   0.908
 1307SOL    HW1 3962   2.396   3.466   0.945
 1307SOL    HW2 3963   2.373   3.356   0.845
 1308SOL     OW 3964   2.785   2.624   1.200
 1308SOL    HW1 3965   2.843   2.637   1.277
 1308SOL    HW2 3966   2.717   2.567   1.239
 1309SOL     OW 3967   1.892   2.463   1.120
 1309SOL    HW1 3968   1.976   2.459   1.073
 1309SOL    HW2 3969   1.917   2.438   1.210
 1310SOL     OW 3970   2.081   2.504   1.725
 1310SOL    HW1 3971   2.174   2.523   1.704
 1310SOL    HW2 3972   2.034   2.559   1.660
 1311SOL     OW 3973   2.595   2.374   0.366
 1311SOL    HW1 3974   2.681   2.357   0.324
 1311SOL    HW2 3975   2.567   2.456   0.325
 1312SOL     OW 3976   3.491   2.412   1.116
 1312SOL    HW1 3977   3.457   2.458   1.194
 1312SOL    HW2 3978   3.583   2.445   1.111
 1313SOL     OW 3979   2.057   3.391   1.724
 1313SOL    HW1 3980   2.017   3.419   1.808
 1313SOL    HW2 3981   2.083   3.300   1.746
 1314SOL     OW 3982   2.589   2.270   1.220
 1314SOL    HW1 3983   2.526   2.196   1.214
 1314SOL    HW2 3984   2.556   2.331   1.151
 1315SOL     OW 3985   2.691   3.592   1.510
 1315SOL    HW1 3986   2.715   3.522   1.449
 1315SOL    HW2 3987   2.711   3.672   1.459
 1316SOL     OW 3988   2.023   3.017   1.500
 1316SOL    HW1 3989   2.023   2.974   1.588
 1316SOL    HW2 3990   2.046   2.941   1.442
 1317SOL     OW 3991   3.720   3.630   1.193
 1317SOL    HW1 3992   3.778   3.629   1.115
 1317SOL    HW2 3993   3.657   3.558   1.172
 1318SOL     OW 3994   3.116   3.569   1.080
 1318SOL    HW1 3995   3.204   3.611   1.073
 1318SOL    HW2 3996   3.138   3.491   1.134
 1319SOL     OW 3997   1.998   3.060   1.030
 1319SOL    HW1 3998   1.963   3.087   1.117
 1319SOL    HW2 3999   1.926   3.004   0.995
 1320SOL     OW 4000   2.561   3.568   1.741
 1320SOL    HW1 4001   2.488   3.632   1.738
 1320SOL    HW2 4002   2.605   3.583   1.654
 1321SOL     OW 4003   3.291   3.488   0.603
 1321SOL    HW1 4004   3.343   3.538   0.539
 1321SOL    HW2 4005   3.223   3.553   0.630
 1322SOL     OW 4006   1.947   3.682   1.825
 1322SOL    HW1 4007   1.922   3.596   1.863
 1322SOL    HW2 4008   2.011   3.714   1.890
 1323SOL     OW 4009   3.128   2.794   0.676
 1323SOL    HW1 4010   3.205   2.734   0.680
 1323SOL    HW2 4011   3.170   2.876   0.641
 1324SOL     OW 4012   2.575   3.135   1.469
 1324SOL    HW1 4013   2.575   3.191   1.549
 1324SOL    HW2 4014   2.488   3.154   1.430
 1325SOL     OW 4015   3.717   2.055   0.985
 1325SOL    HW1 4016   3.743   1.964   0.959
 1325SOL    HW2 4017   3.627   2.062   0.947
 1326SOL     OW 4018   2.084   2.165   0.710
 1326SOL    HW1 4019   1.995   2.204   0.698
 1326SOL    HW2 4020   2.097   2.174   0.806
 1327SOL     OW 4021   2.650   2.887   1.395
 1327SOL    HW1 4022   2.665   2.904   1.301
 1327SOL    HW2 4023   2.625   2.976   1.428
 1328SOL     OW 4024   2.245   3.200   1.518
 1328SOL    HW1 4025   2.224   3.271   1.456
 1328SOL    HW2 4026   2.170   3.139   1.507
 1329SOL     OW 4027   2.979   2.976   0.819
 1329SOL    HW1 4028   2.892   2.936   0.833
 1329SOL    HW2 4029   3.023   2.908   0.764
 1330SOL     OW 4030   2.887   2.119   0.965
 1330SOL    HW1 4031   2.887   2.068   0.881
 1330SOL    HW2 4032   2.885   2.044   1.029
 1331SOL     OW 4033   2.502   3.385   0.503
 1331SOL    HW1 4034   2.545   3.316   0.448
 1331SOL    HW2 4035   2.459   3.442   0.435
 1332SOL     OW 4036   3.702   2.239   1.424
 1332SOL    HW1 4037   3.739   2.319   1.383
 1332SOL    HW2 4038   3.679   2.183   1.348
 1333SOL     OW 4039   2.119   3.267   0.352
 1333SOL    HW1 4040   2.041   3.234   0.303
 1333SOL    HW2 4041   2.079   3.319   0.423
 1334SOL     OW 4042   2.008   2.897   1.740
 1334SOL    HW1 4043   1.930   2.865   1.791
 1334SOL    HW2 4044   2.080   2.839   1.773
 1335SOL     OW 4045   2.550   2.047   1.483
 1335SOL    HW1 4046   2.635   2.016   1.445
 1335SOL    HW2 4047   2.577   2.078   1.571
 1336SOL     OW 4048   4.083   0.148   2.977
 1336SOL    HW1 4049   4.031   0.071   2.948
 1336SOL    HW2 4050   4.174   0.114   2.967
 1337SOL     OW 4051   3.323   2.595   1.277
 1337SOL    HW1 4052   3.271   2.633   1.204
 1337SOL    HW2 4053   3.406   2.647   1.268
 1338SOL     OW 4054   1.919   2.009   0.252
 1338SOL    HW1 4055   1.866   2.057   0.188
 1338SOL    HW2 4056   2.010   2.036   0.228
 1339SOL     OW 4057   2.498   2.673   1.468
 1339SOL    HW1 4058   2.552   2.752   1.452
 1339SOL    HW2 4059   2.562   2.601   1.451
 1340SOL     OW 4060   3.373   3.652   1.075
 1340SOL    HW1 4061   3.416   3.706   1.007
 1340SOL    HW2 4062   3.440   3.585   1.095
 1341SOL     OW 4063   2.581   2.397   1.672
 1341SOL    HW1 4064   2.645   2.446   1.727
 1341SOL    HW2 4065   2.597   2.305   1.698
 1342SOL     OW 4066   3.386   3.136   1.665
 1342SOL    HW1 4067   3.377   3.097   1.754
 1342SOL    HW2 4068   3.440   3.070   1.620
 1343SOL     OW 4069   2.184   3.607   1.601
 1343SOL    HW1 4070   2.101   3.652   1.577
 1343SOL    HW2 4071   2.149   3.524   1.639
 1344SOL     OW 4072   3.548   2.710   1.177
 1344SOL    HW1 4073   3.626   2.664   1.142
 1344SOL    HW2 4074   3.526   2.774   1.108
 1345SOL     OW 4075   3.080   2.138   0.482
 1345SOL    HW1 4076   3.102   2.174   0.394
 1345SOL    HW2 4077   3.116   2.206   0.542
 1346SOL     OW 4078   2.454   2.568   0.635
 1346SOL    HW1 4079   2.493   2.657   0.642
 1346SOL    HW2 4080   2.378   2.583   0.576
 1347SOL     OW 4081   3.633   2.119   1.659
 1347SOL    HW1 4082   3.647   2.170   1.576
 1347SOL    HW2 4083   3.536   2.120   1.668
 1348SOL     OW 4084   2.516   3.579   0.978
 1348SOL    HW1 4085   2.496   3.673   0.965
 1348SOL    HW2 4086   2.606   3.572   0.942
 1349SOL     OW 4087   2.742   2.837   0.873
 1349SOL    HW1 4088   2.789   2.756   0.901
 1349SOL    HW2 4089   2.696   2.864   0.953
 1350SOL     OW 4090   2.924   2.859   0.133
 1350SOL    HW1 4091   2.912   2.813   0.048
 1350SOL    HW2 4092   2.968   2.791   0.187
 1351SOL     OW 4093   3.760   3.417   0.831
 1351SOL    HW1 4094   3.665   3.412   0.811
 1351SOL    HW2 4095   3.789   3.326   0.816
 1352SOL     OW 4096   2.082   3.139   1.827
 1352SOL    HW1 4097   2.057   3.051   1.792
 1352SOL    HW2 4098   2.025   3.144   1.907
 1353SOL     OW 4099   2.034   3.110   0.651
 1353SOL    HW1 4100   2.066   3.054   0.724
 1353SOL    HW2 4101   2.081   3.072   0.575
 1354SOL     OW 4102   2.577   3.297   1.691
 1354SOL    HW1 4103   2.497   3.257   1.729
 1354SOL    HW2 4104   2.562   3.392   1.705
 1355SOL     OW 4105   3.646   2.037   1.246
 1355SOL    HW1 4106   3.657   1.941   1.242
 1355SOL    HW2 4107   3.672   2.062   1.155
 1356SOL     OW 4108   2.205   2.310   0.498
 1356SOL    HW1 4109   2.280   2.252   0.474
 1356SOL    HW2 4110   2.166   2.264   0.574
 1357SOL     OW 4111   3.558   3.420   1.129
 1357SOL    HW1 4112   3.491   3.372   1.078
 1357SOL    HW2 4113   3.602   3.348   1.176
 1358SOL     OW 4114   2.223   2.427   1.291
 1358SOL    HW1 4115   2.273   2.354   1.334
 1358SOL    HW2 4116   2.222   2.401   1.198
 1359SOL     OW 4117   2.714   3.531   0.587
 1359SOL    HW1 4118   2.697   3.626   0.571
 1359SOL    HW2 4119   2.630   3.490   0.560
 1360SOL     OW 4120   3.264   2.108   1.108
 1360SOL    HW1 4121   3.288   2.017   1.134
 1360SOL    HW2 4122   3.219   2.140   1.188
 1361SOL     OW 4123   2.883   1.882   1.110
 1361SOL    HW1 4124   2.842   1.813   1.056
 1361SOL    HW2 4125   2.975   1.848   1.115
 1362SOL     OW 4126   2.639   3.178   0.385
 1362SOL    HW1 4127   2.583   3.100   0.401
 1362SOL    HW2 4128   2.684   3.152   0.303
 1363SOL     OW 4129   2.464   3.455   1.277
 1363SOL    HW1 4130   2.450   3.537   1.328
 1363SOL    HW2 4131   2.540   3.478   1.221
 1364SOL     OW 4132   3.163   2.324   0.664
 1364SOL    HW1 4133   3.118   2.410   0.667
 1364SOL    HW2 4134   3.149   2.292   0.755
 1365SOL     OW 4135   3.459   2.072   0.909
 1365SOL    HW1 4136   3.395   2.106   0.974
 1365SOL    HW2 4137   3.452   2.137   0.837
 1366SOL     OW 4138   1.969   2.934   0.365
 1366SOL    HW1 4139   2.063   2.941   0.386
 1366SOL    HW2 4140   1.959   2.837   0.351
 1367SOL     OW 4141   2.083   2.524   2.010
 1367SOL    HW1 4142   1.996   2.491   2.036
 1367SOL    HW2 4143   2.075   2.529   1.913
 1368SOL     OW 4144   2.070   2.222   2.816
 1368SOL    HW1 4145   2.114   2.214   2.902
 1368SOL    HW2 4146   1.986   2.174   2.831
 1369SOL     OW 4147   1.833   2.293   2.505
 1369SOL    HW1 4148   1.749   2.307   2.552
 1369SOL    HW2 4149   1.809   2.222   2.443
 1370SOL     OW 4150   2.431   3.194   3.057
 1370SOL    HW1 4151   2.346   3.222   3.020
 1370SOL    HW2 4152   2.491   3.205   2.981
 1371SOL     OW 4153   3.473   3.357   2.566
 1371SOL    HW1 4154   3.412   3.343   2.640
 1371SOL    HW2 4155   3.410   3.371   2.493
 1372SOL     OW 4156   3.004   2.561   2.549
 1372SOL    HW1 4157   3.045   2.648   2.535
 1372SOL    HW2 4158   2.957   2.575   2.633
 1373SOL     OW 4159   3.665   2.409   2.067
 1373SOL    HW1 4160   3.689   2.343   1.999
 1373SOL    HW2 4161   3.588   2.366   2.108
 1374SOL     OW 4162   2.641   2.929   2.908
 1374SOL    HW1 4163   2.605   2.889   2.989
 1374SOL    HW2 4164   2.608   3.020   2.911
 1375SOL     OW 4165   2.534   2.790   2.512
 1375SOL    HW1 4166   2.609   2.798   2.574
 1375SOL    HW2 4167   2.477   2.865   2.539
 1376SOL     OW 4168   2.191   3.302   2.956
 1376SOL    HW1 4169   2.125   3.239   2.923
 1376SOL    HW2 4170   2.218   3.349   2.875
 1377SOL     OW 4171   3.429   2.287   2.598
 1377SOL    HW1 4172   3.354   2.288   2.537
 1377SOL    HW2 4173   3.405   2.359   2.657
 1378SOL     OW 4174   2.095   3.604   2.303
 1378SOL    HW1 4175   2.126   3.670   2.368
 1378SOL    HW2 4176   2.169   3.604   2.240
 1379SOL     OW 4177   2.164   3.341   2.357
 1379SOL    HW1 4178   2.124   3.429   2.359
 1379SOL    HW2 4179   2.113   3.292   2.425
 1380SOL     OW 4180   2.156   2.988   2.712
 1380SOL    HW1 4181   2.170   2.897   2.746
 1380SOL    HW2 4182   2.105   3.028   2.785
 1381SOL     OW 4183   2.405   2.813   2.041
 1381SOL    HW1 4184   2.452   2.874   1.981
 1381SOL    HW2 4185   2.450   2.836   2.125
 1382SOL     OW 4186   1.431   4.142   0.299
 1382SOL    HW1 4187   1.402   4.226   0.258
 1382SOL    HW2 4188   1.347   4.109   0.334
 1383SOL     OW 4189   1.970   2.539   2.446
 1383SOL    HW1 4190   1.932   2.454   2.474
 1383SOL    HW2 4191   1.970   2.591   2.529
 1384SOL     OW 4192   3.696   3.600   2.145
 1384SOL    HW1 4193   3.755   3.595   2.223
 1384SOL    HW2 4194   3.719   3.688   2.110
 1385SOL     OW 4195   1.914   3.440   1.950
 1385SOL    HW1 4196   1.855   3.363   1.960
 1385SOL    HW2 4197   1.899   3.487   2.035
 1386SOL     OW 4198   3.568   2.822   2.589
 1386SOL    HW1 4199   3.651   2.772   2.595
 1386SOL    HW2 4200   3.572   2.863   2.502
 1387SOL     OW 4201   3.517   2.949   2.293
 1387SOL    HW1 4202   3.595   2.928   2.239
 1387SOL    HW2 4203   3.551   3.023   2.348
 1388SOL     OW 4204   2.456   3.249   2.596
 1388SOL    HW1 4205   2.425   3.157   2.584
 1388SOL    HW2 4206   2.444   3.284   2.505
 1389SOL     OW 4207   2.699   1.879   2.385
 1389SOL    HW1 4208   2.734   1.966   2.355
 1389SOL    HW2 4209   2.602   1.896   2.383
 1390SOL     OW 4210   4.221   0.754   0.114
 1390SOL    HW1 4211   4.280   0.700   0.059
 1390SOL    HW2 4212   4.139   0.702   0.116
 1391SOL     OW 4213   3.341   2.843   2.106
 1391SOL    HW1 4214   3.271   2.800   2.160
 1391SOL    HW2 4215   3.405   2.869   2.175
 1392SOL     OW 4216   3.278   3.300   2.758
 1392SOL    HW1 4217   3.281   3.291   2.854
 1392SOL    HW2 4218   3.270   3.207   2.729
 1393SOL     OW 4219   3.502   3.666   2.383
 1393SOL    HW1 4220   3.488   3.607   2.307
 1393SOL    HW2 4221   3.536   3.607   2.450
 1394SOL     OW 4222   2.436   2.542   2.150
 1394SOL    HW1 4223   2.433   2.630   2.108
 1394SOL    HW2 4224   2.370   2.551   2.221
 1395SOL     OW 4225   3.153   2.254   2.811
 1395SOL    HW1 4226   3.064   2.215   2.801
 1395SOL    HW2 4227   3.189   2.195   2.880
 1396SOL     OW 4228   3.430   3.523   2.151
 1396SOL    HW1 4229   3.524   3.541   2.132
 1396SOL    HW2 4230   3.406   3.466   2.075
 1397SOL     OW 4231   2.908   2.543   2.294
 1397SOL    HW1 4232   2.930   2.536   2.389
 1397SOL    HW2 4233   2.822   2.498   2.289
 1398SOL     OW 4234   1.959   2.711   2.659
 1398SOL    HW1 4235   2.044   2.712   2.707
 1398SOL    HW2 4236   1.908   2.777   2.710
 1399SOL     OW 4237   2.707   2.203   2.069
 1399SOL    HW1 4238   2.762   2.235   1.995
 1399SOL    HW2 4239   2.652   2.135   2.026
 1400SOL     OW 4240   3.265   3.005   2.407
 1400SOL    HW1 4241   3.348   2.991   2.359
 1400SOL    HW2 4242   3.219   3.072   2.352
 1401SOL     OW 4243   2.399   2.016   2.740
 1401SOL    HW1 4244   2.424   2.024   2.834
 1401SOL    HW2 4245   2.401   2.109   2.711
 1402SOL     OW 4246   2.885   3.319   2.296
 1402SOL    HW1 4247   2.856   3.393   2.240
 1402SOL    HW2 4248   2.828   3.329   2.373
 1403SOL     OW 4249   2.195   3.696   2.732
 1403SOL    HW1 4250   2.232   3.606   2.736
 1403SOL    HW2 4251   2.270   3.751   2.764
 1404SOL     OW 4252   3.507   3.003   2.793
 1404SOL    HW1 4253   3.540   2.938   2.729
 1404SOL    HW2 4254   3.418   3.020   2.757
 1405SOL     OW 4255   2.141   2.783   2.131
 1405SOL    HW1 4256   2.231   2.795   2.095
 1405SOL    HW2 4257   2.120   2.692   2.101
 1406SOL     OW 4258   3.354   2.649   2.572
 1406SOL    HW1 4259   3.354   2.590   2.650
 1406SOL    HW2 4260   3.428   2.709   2.591
 1407SOL     OW 4261   3.022   3.568   2.030
 1407SOL    HW1 4262   2.940   3.559   2.082
 1407SOL    HW2 4263   2.998   3.527   1.947
 1408SOL     OW 4264   3.571   3.203   1.974
 1408SOL    HW1 4265   3.513   3.280   1.961
 1408SOL    HW2 4266   3.510   3.131   1.954
 1409SOL     OW 4267   2.321   3.636   2.148
 1409SOL    HW1 4268   2.374   3.686   2.213
 1409SOL    HW2 4269   2.389   3.584   2.103
 1410SOL     OW 4270   3.247   1.995   2.339
 1410SOL    HW1 4271   3.254   1.977   2.243
 1410SOL    HW2 4272   3.334   1.966   2.371
 1411SOL     OW 4273   2.759   3.533   2.686
 1411SOL    HW1 4274   2.834   3.483   2.721
 1411SOL    HW2 4275   2.733   3.477   2.610
 1412SOL     OW 4276   2.242   2.540   2.345
 1412SOL    HW1 4277   2.237   2.441   2.342
 1412SOL    HW2 4278   2.152   2.561   2.373
 1413SOL     OW 4279   2.535   1.992   1.964
 1413SOL    HW1 4280   2.581   1.912   1.991
 1413SOL    HW2 4281   2.470   1.956   1.900
 1414SOL     OW 4282   1.171   0.247   0.171
 1414SOL    HW1 4283   1.184   0.274   0.264
 1414SOL    HW2 4284   1.132   0.327   0.132
 1415SOL     OW 4285   2.595   3.205   2.837
 1415SOL    HW1 4286   2.689   3.209   2.812
 1415SOL    HW2 4287   2.550   3.221   2.753
 1416SOL     OW 4288   2.800   2.359   2.763
 1416SOL    HW1 4289   2.774   2.349   2.669
 1416SOL    HW2 4290   2.839   2.271   2.780
 1417SOL     OW 4291   2.434   1.938   2.357
 1417SOL    HW1 4292   2.357   1.940   2.416
 1417SOL    HW2 4293   2.419   2.016   2.301
 1418SOL     OW 4294   3.361   3.038   1.919
 1418SOL    HW1 4295   3.358   2.959   1.977
 1418SOL    HW2 4296   3.282   3.087   1.949
 1419SOL     OW 4297   2.119   1.927   2.018
 1419SOL    HW1 4298   2.166   1.999   1.972
 1419SOL    HW2 4299   2.192   1.882   2.066
 1420SOL     OW 4300   2.804   2.117   2.311
 1420SOL    HW1 4301   2.773   2.149   2.225
 1420SOL    HW2 4302   2.899   2.142   2.310
 1421SOL     OW 4303   3.036   3.410   2.674
 1421SOL    HW1 4304   3.064   3.476   2.609
 1421SOL    HW2 4305   3.122   3.374   2.703
 1422SOL     OW 4306   2.359   3.005   2.537
 1422SOL    HW1 4307   2.288   2.995   2.605
 1422SOL    HW2 4308   2.308   2.993   2.455
 1423SOL     OW 4309   3.119   3.618   2.507
 1423SOL    HW1 4310   3.169   3.691   2.465
 1423SOL    HW2 4311   3.033   3.662   2.521
 1424SOL     OW 4312   2.876   2.326   1.885
 1424SOL    HW1 4313   2.842   2.412   1.854
 1424SOL    HW2 4314   2.931   2.351   1.961
 1425SOL     OW 4315   4.023   0.220   0.228
 1425SOL    HW1 4316   4.082   0.157   0.273
 1425SOL    HW2 4317   4.055   0.305   0.263
 1426SOL     OW 4318   2.467   2.005   2.999
 1426SOL    HW1 4319   2.470   1.939   3.070
 1426SOL    HW2 4320   2.459   2.088   3.048
 1427SOL     OW 4321   2.741   2.315   2.503
 1427SOL    HW1 4322   2.687   2.367   2.442
 1427SOL    HW2 4323   2.760   2.237   2.449
 1428SOL     OW 4324   2.887   1.919   2.588
 1428SOL    HW1 4325   2.819   1.912   2.518
 1428SOL    HW2 4326   2.864   1.846   2.647
 1429SOL     OW 4327   3.263   3.044   2.679
 1429SOL    HW1 4328   3.183   2.997   2.705
 1429SOL    HW2 4329   3.265   3.029   2.582
 1430SOL     OW 4330   3.326   2.465   2.784
 1430SOL    HW1 4331   3.259   2.396   2.799
 1430SOL    HW2 4332   3.387   2.450   2.859
 1431SOL     OW 4333   3.660   2.627   2.227
 1431SOL    HW1 4334   3.721   2.589   2.293
 1431SOL    HW2 4335   3.658   2.557   2.160
 1432SOL     OW 4336   2.374   3.324   2.001
 1432SOL    HW1 4337   2.305   3.280   2.053
 1432SOL    HW2 4338   2.363   3.281   1.915
 1433SOL     OW 4339   3.619   3.132   2.454
 1433SOL    HW1 4340   3.713   3.129   2.478
 1433SOL    HW2 4341   3.586   3.212   2.499
 1434SOL     OW 4342   3.226   2.409   1.928
 1434SOL    HW1 4343   3.154   2.403   1.994
 1434SOL    HW2 4344   3.276   2.329   1.948
 1435SOL     OW 4345   2.380   2.121   2.163
 1435SOL    HW1 4346   2.434   2.080   2.093
 1435SOL    HW2 4347   2.347   2.201   2.118
 1436SOL     OW 4348   3.037   3.072   2.933
 1436SOL    HW1 4349   3.000   2.983   2.927
 1436SOL    HW2 4350   2.973   3.125   2.884
 1437SOL     OW 4351   2.554   2.881   2.256
 1437SOL    HW1 4352   2.542   2.846   2.346
 1437SOL    HW2 4353   2.639   2.839   2.231
 1438SOL     OW 4354   2.190   2.987   2.319
 1438SOL    HW1 4355   2.198   3.050   2.245
 1438SOL    HW2 4356   2.172   2.904   2.272
 1439SOL     OW 4357   2.422   2.298   2.694
 1439SOL    HW1 4358   2.447   2.364   2.626
 1439SOL    HW2 4359   2.474   2.329   2.771
 1440SOL     OW 4360   3.136   3.214   2.277
 1440SOL    HW1 4361   3.186   3.285   2.321
 1440SOL    HW2 4362   3.043   3.242   2.290
 1441SOL     OW 4363   3.433   2.501   2.345
 1441SOL    HW1 4364   3.389   2.552   2.416
 1441SOL    HW2 4365   3.495   2.566   2.308
 1442SOL     OW 4366   3.162   2.683   2.857
 1442SOL    HW1 4367   3.070   2.666   2.829
 1442SOL    HW2 4368   3.211   2.612   2.813
 1443SOL     OW 4369   3.025   2.378   2.109
 1443SOL    HW1 4370   3.046   2.306   2.173
 1443SOL    HW2 4371   2.986   2.444   2.169
 1444SOL     OW 4372   4.059   1.018   0.085
 1444SOL    HW1 4373   4.090   0.963   0.159
 1444SOL    HW2 4374   4.118   1.093   0.090
 1445SOL     OW 4375   2.563   2.397   2.903
 1445SOL    HW1 4376   2.651   2.399   2.862
 1445SOL    HW2 4377   2.565   2.472   2.965
 1446SOL     OW 4378   2.189   1.934   2.485
 1446SOL    HW1 4379   2.146   2.020   2.503
 1446SOL    HW2 4380   2.187   1.893   2.573
 1447SOL     OW 4381   3.458   2.280   2.193
 1447SOL    HW1 4382   3.503   2.219   2.255
 1447SOL    HW2 4383   3.436   2.355   2.252
 1448SOL     OW 4384   2.898   2.607   2.798
 1448SOL    HW1 4385   2.885   2.629   2.893
 1448SOL    HW2 4386   2.861   2.517   2.794
 1449SOL     OW 4387   3.342   2.163   1.979
 1449SOL    HW1 4388   3.310   2.078   2.015
 1449SOL    HW2 4389   3.388   2.201   2.056
 1450SOL     OW 4390   3.171   2.681   1.936
 1450SOL    HW1 4391   3.203   2.591   1.921
 1450SOL    HW2 4392   3.252   2.730   1.959
 1451SOL     OW 4393   2.861   3.209   2.745
 1451SOL    HW1 4394   2.890   3.129   2.696
 1451SOL    HW2 4395   2.923   3.277   2.713
 1452SOL     OW 4396   2.191   2.734   2.809
 1452SOL    HW1 4397   2.229   2.740   2.899
 1452SOL    HW2 4398   2.213   2.643   2.784
 1453SOL     OW 4399   2.205   2.459   2.768
 1453SOL    HW1 4400   2.144   2.383   2.767
 1453SOL    HW2 4401   2.285   2.418   2.732
 1454SOL     OW 4402   1.914   3.138   2.043
 1454SOL    HW1 4403   1.824   3.169   2.021
 1454SOL    HW2 4404   1.896   3.051   2.084
 1455SOL     OW 4405   6.266   3.644   2.808
 1455SOL    HW1 4406   6.238   3.572   2.748
 1455SOL    HW2 4407   6.359   3.657   2.782
 1456SOL     OW 4408   2.316   3.441   2.750
 1456SOL    HW1 4409   2.395   3.494   2.772
 1456SOL    HW2 4410   2.354   3.372   2.692
 1457SOL     OW 4411   2.862   2.663   3.055
 1457SOL    HW1 4412   2.903   2.662   3.142
 1457SOL    HW2 4413   2.767   2.661   3.077
 1458SOL     OW 4414   6.195   2.459   3.029
 1458SOL    HW1 4415   6.290   2.477   3.016
 1458SOL    HW2 4416   6.195   2.428   3.122
 1459SOL     OW 4417   2.669   2.420   2.244
 1459SOL    HW1 4418   2.672   2.345   2.182
 1459SOL    HW2 4419   2.588   2.467   2.217
 1460SOL     OW 4420   3.480   2.402   2.997
 1460SOL    HW1 4421   3.423   2.403   3.076
 1460SOL    HW2 4422   3.565   2.429   3.035
 1461SOL     OW 4423   2.295   2.342   2.021
 1461SOL    HW1 4424   2.361   2.405   2.057
 1461SOL    HW2 4425   2.215   2.398   2.024
 1462SOL     OW 4426   4.172   0.908   0.327
 1462SOL    HW1 4427   4.144   0.845   0.397
 1462SOL    HW2 4428   4.204   0.846   0.258
 1463SOL     OW 4429   3.130   2.708   2.214
 1463SOL    HW1 4430   3.059   2.658   2.257
 1463SOL    HW2 4431   3.116   2.687   2.120
 1464SOL     OW 4432   3.520   3.587   2.894
 1464SOL    HW1 4433   3.608   3.598   2.855
 1464SOL    HW2 4434   3.537   3.516   2.960
 1465SOL     OW 4435   6.319   3.100   2.893
 1465SOL    HW1 4436   6.283   3.109   2.983
 1465SOL    HW2 4437   6.250   3.045   2.850
 1466SOL     OW 4438   3.606   2.092   2.328
 1466SOL    HW1 4439   3.652   2.069   2.245
 1466SOL    HW2 4440   3.570   2.007   2.356
 1467SOL     OW 4441   3.281   3.425   2.379
 1467SOL    HW1 4442   3.315   3.466   2.298
 1467SOL    HW2 4443   3.221   3.494   2.415
 1468SOL     OW 4444   3.132   2.799   2.527
 1468SOL    HW1 4445   3.211   2.745   2.543
 1468SOL    HW2 4446   3.166   2.863   2.463
 1469SOL     OW 4447   2.545   3.532   2.011
 1469SOL    HW1 4448   2.559   3.539   1.915
 1469SOL    HW2 4449   2.493   3.449   2.017
 1470SOL     OW 4450   3.723   2.043   2.835
 1470SOL    HW1 4451   3.733   1.946   2.835
 1470SOL    HW2 4452   3.628   2.054   2.812
 1471SOL     OW 4453   2.076   2.171   2.549
 1471SOL    HW1 4454   1.991   2.215   2.532
 1471SOL    HW2 4455   2.087   2.187   2.645
 1472SOL     OW 4456   2.780   2.764   2.188
 1472SOL    HW1 4457   2.823   2.759   2.100
 1472SOL    HW2 4458   2.825   2.692   2.235
 1473SOL     OW 4459   3.355   3.373   1.935
 1473SOL    HW1 4460   3.280   3.316   1.958
 1473SOL    HW2 4461   3.351   3.374   1.839
 1474SOL     OW 4462   2.950   2.974   2.638
 1474SOL    HW1 4463   2.869   2.920   2.649
 1474SOL    HW2 4464   3.008   2.912   2.592
 1475SOL     OW 4465   2.920   2.110   2.789
 1475SOL    HW1 4466   2.913   2.057   2.708
 1475SOL    HW2 4467   2.905   2.043   2.858
 1476SOL     OW 4468   2.452   3.328   2.333
 1476SOL    HW1 4469   2.481   3.270   2.260
 1476SOL    HW2 4470   2.356   3.337   2.317
 1477SOL     OW 4471   2.171   3.195   2.134
 1477SOL    HW1 4472   2.079   3.184   2.103
 1477SOL    HW2 4473   2.160   3.253   2.212
 1478SOL     OW 4474   2.021   2.240   1.724
 1478SOL    HW1 4475   1.924   2.239   1.726
 1478SOL    HW2 4476   2.040   2.336   1.727
 1479SOL     OW 4477   1.876   1.985   2.123
 1479SOL    HW1 4478   1.839   2.037   2.050
 1479SOL    HW2 4479   1.968   1.970   2.093
 1480SOL     OW 4480   3.156   3.196   2.007
 1480SOL    HW1 4481   3.065   3.179   1.983
 1480SOL    HW2 4482   3.151   3.198   2.105
 1481SOL     OW 4483   3.316   3.753   2.841
 1481SOL    HW1 4484   3.251   3.697   2.797
 1481SOL    HW2 4485   3.392   3.692   2.850
 1482SOL     OW 4486   3.067   2.199   2.314
 1482SOL    HW1 4487   3.130   2.124   2.320
 1482SOL    HW2 4488   3.094   2.250   2.393
 1483SOL     OW 4489   2.451   2.522   2.529
 1483SOL    HW1 4490   2.487   2.612   2.527
 1483SOL    HW2 4491   2.377   2.529   2.466
 1484SOL     OW 4492   2.516   3.613   2.803
 1484SOL    HW1 4493   2.503   3.709   2.789
 1484SOL    HW2 4494   2.604   3.597   2.766
 1485SOL     OW 4495   2.739   2.811   2.691
 1485SOL    HW1 4496   2.786   2.734   2.729
 1485SOL    HW2 4497   2.701   2.851   2.772
 1486SOL     OW 4498   2.907   2.739   1.950
 1486SOL    HW1 4499   2.886   2.823   1.906
 1486SOL    HW2 4500   3.002   2.728   1.934
 1487SOL     OW 4501   3.721   3.399   2.675
 1487SOL    HW1 4502   3.634   3.389   2.633
 1487SOL    HW2 4503   3.720   3.326   2.740
 1488SOL     OW 4504   2.040   3.133   2.502
 1488SOL    HW1 4505   2.068   3.089   2.584
 1488SOL    HW2 4506   2.081   3.075   2.435
 1489SOL     OW 4507   2.228   2.276   2.346
 1489SOL    HW1 4508   2.275   2.204   2.302
 1489SOL    HW2 4509   2.181   2.232   2.419
 1490SOL     OW 4510   2.684   3.372   2.480
 1490SOL    HW1 4511   2.615   3.386   2.413
 1490SOL    HW2 4512   2.642   3.305   2.536
 1491SOL     OW 4513   3.240   2.066   2.989
 1491SOL    HW1 4514   3.274   1.983   2.953
 1491SOL    HW2 4515   3.191   2.033   3.066
 1492SOL     OW 4516   2.882   1.883   2.955
 1492SOL    HW1 4517   2.841   1.831   3.027
 1492SOL    HW2 4518   2.875   1.821   2.880
 1493SOL     OW 4519   2.590   3.137   2.172
 1493SOL    HW1 4520   2.572   3.048   2.207
 1493SOL    HW2 4521   2.683   3.149   2.193
 1494SOL     OW 4522   3.266   1.920   2.080
 1494SOL    HW1 4523   3.327   1.845   2.088
 1494SOL    HW2 4524   3.179   1.873   2.081
 1495SOL     OW 4525   3.149   2.328   2.538
 1495SOL    HW1 4526   3.100   2.412   2.539
 1495SOL    HW2 4527   3.143   2.300   2.631
 1496SOL     OW 4528   3.459   2.076   2.775
 1496SOL    HW1 4529   3.401   2.115   2.841
 1496SOL    HW2 4530   3.452   2.140   2.702
 1497SOL     OW 4531   1.893   2.894   2.174
 1497SOL    HW1 4532   1.985   2.867   2.152
 1497SOL    HW2 4533   1.855   2.806   2.194
 1498SOL     OW 4534   2.781   3.537   2.162
 1498SOL    HW1 4535   2.697   3.531   2.113
 1498SOL    HW2 4536   2.762   3.608   2.226
 1499SOL     OW 4537   1.915   4.312   0.138
 1499SOL    HW1 4538   1.887   4.232   0.090
 1499SOL    HW2 4539   2.003   4.287   0.172
 1500SOL     OW 4540   2.064   4.001   0.997
 1500SOL    HW1 4541   2.102   3.962   1.078
 1500SOL    HW2 4542   1.974   3.965   0.998
 1501SOL     OW 4543   1.799   4.035   0.682
 1501SOL    HW1 4544   1.730   4.024   0.749
 1501SOL    HW2 4545   1.770   3.973   0.613
 1502SOL     OW 4546   3.610   0.075   0.341
 1502SOL    HW1 4547   3.672   0.083   0.266
 1502SOL    HW2 4548   3.593  -0.020   0.343
 1503SOL     OW 4549   2.322   4.098   1.519
 1503SOL    HW1 4550   2.396   4.035   1.507
 1503SOL    HW2 4551   2.245   4.039   1.513
 1504SOL     OW 4552   3.457   4.095   0.769
 1504SOL    HW1 4553   3.382   4.120   0.711
 1504SOL    HW2 4554   3.446   4.160   0.841
 1505SOL     OW 4555   1.782   4.303   0.581
 1505SOL    HW1 4556   1.783   4.207   0.584
 1505SOL    HW2 4557   1.827   4.324   0.665
 1506SOL     OW 4558   2.669   3.802   0.571
 1506SOL    HW1 4559   2.714   3.876   0.525
 1506SOL    HW2 4560   2.575   3.825   0.556
 1507SOL     OW 4561   2.203   3.962   1.825
 1507SOL    HW1 4562   2.232   4.049   1.797
 1507SOL    HW2 4563   2.106   3.975   1.834
 1508SOL     OW 4564   3.146   4.105   0.934
 1508SOL    HW1 4565   3.058   4.066   0.938
 1508SOL    HW2 4566   3.196   4.041   0.987
 1509SOL     OW 4567   3.203   4.271   1.705
 1509SOL    HW1 4568   3.200   4.313   1.793
 1509SOL    HW2 4569   3.244   4.185   1.725
 1510SOL     OW 4570   2.904   4.150   1.160
 1510SOL    HW1 4571   2.807   4.151   1.173
 1510SOL    HW2 4572   2.912   4.074   1.100
 1511SOL     OW 4573   2.909   0.104   0.442
 1511SOL    HW1 4574   2.988   0.145   0.484
 1511SOL    HW2 4575   2.838   0.138   0.500
 1512SOL     OW 4576   1.915   0.061   0.803
 1512SOL    HW1 4577   2.011   0.052   0.802
 1512SOL    HW2 4578   1.902   0.149   0.762
 1513SOL     OW 4579   3.539   4.329   1.880
 1513SOL    HW1 4580   3.629   4.363   1.889
 1513SOL    HW2 4581   3.551   4.251   1.822
 1514SOL     OW 4582   2.400   3.829   0.938
 1514SOL    HW1 4583   2.413   3.881   1.020
 1514SOL    HW2 4584   2.419   3.895   0.870
 1515SOL     OW 4585   3.381   0.108   0.756
 1515SOL    HW1 4586   3.382   0.048   0.833
 1515SOL    HW2 4587   3.403   0.193   0.799
 1516SOL     OW 4588   2.082   3.962   1.498
 1516SOL    HW1 4589   2.031   4.027   1.547
 1516SOL    HW2 4590   2.033   3.879   1.518
 1517SOL     OW 4591   3.199   3.821   0.445
 1517SOL    HW1 4592   3.138   3.835   0.369
 1517SOL    HW2 4593   3.283   3.810   0.397
 1518SOL     OW 4594   3.300   4.021   1.754
 1518SOL    HW1 4595   3.300   4.003   1.850
 1518SOL    HW2 4596   3.246   3.949   1.720
 1519SOL     OW 4597   2.684   3.954   1.734
 1519SOL    HW1 4598   2.768   3.905   1.725
 1519SOL    HW2 4599   2.647   3.917   1.816
 1520SOL     OW 4600   3.201   4.323   1.438
 1520SOL    HW1 4601   3.208   4.296   1.531
 1520SOL    HW2 4602   3.124   4.383   1.442
 1521SOL     OW 4603   2.410   3.874   0.522
 1521SOL    HW1 4604   2.332   3.830   0.557
 1521SOL    HW2 4605   2.373   3.934   0.455
 1522SOL     OW 4606   2.806   4.006   0.457
 1522SOL    HW1 4607   2.806   4.093   0.414
 1522SOL    HW2 4608   2.894   4.007   0.499
 1523SOL     OW 4609   1.920   4.271   1.376
 1523SOL    HW1 4610   2.018   4.278   1.377
 1523SOL    HW2 4611   1.893   4.364   1.361
 1524SOL     OW 4612   2.426   3.964   1.177
 1524SOL    HW1 4613   2.469   3.923   1.252
 1524SOL    HW2 4614   2.331   3.955   1.200
 1525SOL     OW 4615   2.864   3.785   0.770
 1525SOL    HW1 4616   2.800   3.804   0.700
 1525SOL    HW2 4617   2.824   3.707   0.813
 1526SOL     OW 4618   3.372   4.269   0.965
 1526SOL    HW1 4619   3.286   4.227   0.979
 1526SOL    HW2 4620   3.413   4.265   1.054
 1527SOL     OW 4621   2.291   4.046   0.326
 1527SOL    HW1 4622   2.327   4.002   0.247
 1527SOL    HW2 4623   2.247   4.123   0.286
 1528SOL     OW 4624   2.744   3.810   1.357
 1528SOL    HW1 4625   2.781   3.775   1.273
 1528SOL    HW2 4626   2.820   3.865   1.388
 1529SOL     OW 4627   3.146   4.097   1.282
 1529SOL    HW1 4628   3.170   4.175   1.335
 1529SOL    HW2 4629   3.062   4.125   1.241
 1530SOL     OW 4630   2.347   4.288   0.885
 1530SOL    HW1 4631   2.346   4.329   0.797
 1530SOL    HW2 4632   2.441   4.298   0.910
 1531SOL     OW 4633   2.354   3.747   1.758
 1531SOL    HW1 4634   2.292   3.692   1.707
 1531SOL    HW2 4635   2.301   3.827   1.774
 1532SOL     OW 4636   2.165   3.915   1.238
 1532SOL    HW1 4637   2.126   3.934   1.326
 1532SOL    HW2 4638   2.148   3.819   1.230
 1533SOL     OW 4639   2.606   0.013   0.954
 1533SOL    HW1 4640   2.689   0.027   0.906
 1533SOL    HW2 4641   2.574   0.105   0.967
 1534SOL     OW 4642   2.178   3.778   0.648
 1534SOL    HW1 4643   2.140   3.865   0.669
 1534SOL    HW2 4644   2.181   3.736   0.735
 1535SOL     OW 4645   3.550   4.135   0.357
 1535SOL    HW1 4646   3.547   4.047   0.399
 1535SOL    HW2 4647   3.456   4.153   0.337
 1536SOL     OW 4648   3.410   3.987   0.098
 1536SOL    HW1 4649   3.411   3.914   0.161
 1536SOL    HW2 4650   3.498   4.027   0.110
 1537SOL     OW 4651   2.166   4.237   1.076
 1537SOL    HW1 4652   2.138   4.150   1.041
 1537SOL    HW2 4653   2.233   4.263   1.009
 1538SOL     OW 4654   2.964   4.158   1.611
 1538SOL    HW1 4655   2.886   4.197   1.654
 1538SOL    HW2 4656   3.039   4.205   1.653
 1539SOL     OW 4657   2.953   3.957   1.432
 1539SOL    HW1 4658   2.951   4.023   1.503
 1539SOL    HW2 4659   3.030   3.985   1.381
 1540SOL     OW 4660   1.858   4.236   1.110
 1540SOL    HW1 4661   1.936   4.228   1.054
 1540SOL    HW2 4662   1.895   4.229   1.199
 1541SOL     OW 4663   2.071   4.208   1.672
 1541SOL    HW1 4664   2.148   4.218   1.616
 1541SOL    HW2 4665   2.032   4.298   1.669
 1542SOL     OW 4666   2.596   4.329   0.227
 1542SOL    HW1 4667   2.684   4.295   0.249
 1542SOL    HW2 4668   2.564   4.361   0.313
 1543SOL     OW 4669   3.491   4.242   1.204
 1543SOL    HW1 4670   3.470   4.188   1.281
 1543SOL    HW2 4671   3.587   4.228   1.194
 1544SOL     OW 4672   2.634   4.158   1.155
 1544SOL    HW1 4673   2.557   4.099   1.153
 1544SOL    HW2 4674   2.615   4.221   1.083
 1545SOL     OW 4675   3.593   3.881   0.478
 1545SOL    HW1 4676   3.670   3.829   0.447
 1545SOL    HW2 4677   3.530   3.811   0.496
 1546SOL     OW 4678   3.720   3.848   0.971
 1546SOL    HW1 4679   3.752   3.761   0.945
 1546SOL    HW2 4680   3.627   3.848   0.939
 1547SOL     OW 4681   2.070   4.019   0.721
 1547SOL    HW1 4682   1.974   4.029   0.706
 1547SOL    HW2 4683   2.076   4.020   0.818
 1548SOL     OW 4684   2.929   3.930   0.996
 1548SOL    HW1 4685   2.909   3.892   0.908
 1548SOL    HW2 4686   2.908   3.854   1.054
 1549SOL     OW 4687   3.645   4.081   1.454
 1549SOL    HW1 4688   3.695   4.162   1.434
 1549SOL    HW2 4689   3.654   4.028   1.372
 1550SOL     OW 4690   2.531   3.913   1.498
 1550SOL    HW1 4691   2.605   3.882   1.442
 1550SOL    HW2 4692   2.578   3.931   1.582
 1551SOL     OW 4693   3.968   1.946   3.055
 1551SOL    HW1 4694   3.895   1.895   3.095
 1551SOL    HW2 4695   3.988   1.894   2.976
 1552SOL     OW 4696   1.875   3.835   0.383
 1552SOL    HW1 4697   1.895   3.828   0.288
 1552SOL    HW2 4698   1.936   3.770   0.421
 1553SOL     OW 4699   2.726   4.235   1.731
 1553SOL    HW1 4700   2.637   4.259   1.700
 1553SOL    HW2 4701   2.716   4.139   1.743
 1554SOL     OW 4702   3.054   4.032   0.553
 1554SOL    HW1 4703   3.117   3.965   0.522
 1554SOL    HW2 4704   3.113   4.099   0.592
 1555SOL     OW 4705   3.558   4.108   1.716
 1555SOL    HW1 4706   3.582   4.093   1.622
 1555SOL    HW2 4707   3.468   4.071   1.721
 1556SOL     OW 4708   3.697   3.916   1.234
 1556SOL    HW1 4709   3.705   3.824   1.264
 1556SOL    HW2 4710   3.694   3.901   1.138
 1557SOL     OW 4711   2.183   4.194   0.539
 1557SOL    HW1 4712   2.227   4.132   0.479
 1557SOL    HW2 4713   2.142   4.133   0.603
 1558SOL     OW 4714   2.190   4.284   1.340
 1558SOL    HW1 4715   2.252   4.220   1.379
 1558SOL    HW2 4716   2.191   4.260   1.245
 1559SOL     OW 4717   3.278   3.938   1.105
 1559SOL    HW1 4718   3.273   3.848   1.140
 1559SOL    HW2 4719   3.237   3.991   1.177
 1560SOL     OW 4720   2.869   3.688   1.137
 1560SOL    HW1 4721   2.813   3.608   1.136
 1560SOL    HW2 4722   2.957   3.649   1.121
 1561SOL     OW 4723   3.217   4.208   0.684
 1561SOL    HW1 4724   3.246   4.301   0.691
 1561SOL    HW2 4725   3.185   4.188   0.774
 1562SOL     OW 4726   3.458   3.864   0.914
 1562SOL    HW1 4727   3.394   3.898   0.980
 1562SOL    HW2 4728   3.456   3.936   0.848
 1563SOL     OW 4729   2.065   3.965   2.845
 1563SOL    HW1 4730   2.106   3.885   2.812
 1563SOL    HW2 4731   1.970   3.940   2.852
 1564SOL     OW 4732   1.882   4.092   2.497
 1564SOL    HW1 4733   1.805   4.112   2.552
 1564SOL    HW2 4734   1.844   4.029   2.434
 1565SOL     OW 4735   3.402   4.327   2.117
 1565SOL    HW1 4736   3.462   4.327   2.040
 1565SOL    HW2 4737   3.417   4.239   2.155
 1566SOL     OW 4738   3.397   4.134   2.509
 1566SOL    HW1 4739   3.302   4.128   2.528
 1566SOL    HW2 4740   3.412   4.229   2.525
 1567SOL     OW 4741   1.269   1.683   0.318
 1567SOL    HW1 4742   1.259   1.637   0.233
 1567SOL    HW2 4743   1.206   1.755   0.309
 1568SOL     OW 4744   1.995   4.288   2.344
 1568SOL    HW1 4745   1.955   4.217   2.398
 1568SOL    HW2 4746   2.076   4.307   2.394
 1569SOL     OW 4747   2.715   3.742   2.332
 1569SOL    HW1 4748   2.743   3.835   2.316
 1569SOL    HW2 4749   2.618   3.753   2.335
 1570SOL     OW 4750   3.167   4.030   2.847
 1570SOL    HW1 4751   3.082   3.990   2.817
 1570SOL    HW2 4752   3.219   3.951   2.868
 1571SOL     OW 4753   1.949   0.143   2.590
 1571SOL    HW1 4754   2.022   0.081   2.571
 1571SOL    HW2 4755   1.998   0.227   2.592
 1572SOL     OW 4756   2.805   4.082   2.057
 1572SOL    HW1 4757   2.880   4.039   2.016
 1572SOL    HW2 4758   2.804   4.043   2.146
 1573SOL     OW 4759   2.388   3.870   2.814
 1573SOL    HW1 4760   2.365   3.891   2.906
 1573SOL    HW2 4761   2.386   3.960   2.773
 1574SOL     OW 4762   3.383   0.070   2.573
 1574SOL    HW1 4763   3.350   0.025   2.654
 1574SOL    HW2 4764   3.410   0.155   2.610
 1575SOL     OW 4765   3.262   3.805   2.370
 1575SOL    HW1 4766   3.248   3.783   2.276
 1575SOL    HW2 4767   3.354   3.776   2.384
 1576SOL     OW 4768   2.539   3.828   1.947
 1576SOL    HW1 4769   2.560   3.744   1.989
 1576SOL    HW2 4770   2.472   3.801   1.881
 1577SOL     OW 4771   1.177   2.099   0.174
 1577SOL    HW1 4772   1.141   2.053   0.251
 1577SOL    HW2 4773   1.192   2.189   0.209
 1578SOL     OW 4774   2.450   3.800   2.321
 1578SOL    HW1 4775   2.374   3.803   2.382
 1578SOL    HW2 4776   2.446   3.886   2.276
 1579SOL     OW 4777   2.130   3.771   2.011
 1579SOL    HW1 4778   2.182   3.835   1.960
 1579SOL    HW2 4779   2.200   3.720   2.057
 1580SOL     OW 4780   2.799   4.000   2.315
 1580SOL    HW1 4781   2.769   4.072   2.371
 1580SOL    HW2 4782   2.894   3.992   2.340
 1581SOL     OW 4783   4.126   2.012   0.226
 1581SOL    HW1 4784   4.212   1.978   0.193
 1581SOL    HW2 4785   4.140   2.109   0.225
 1582SOL     OW 4786   0.153   1.703   0.026
 1582SOL    HW1 4787   0.223   1.636   0.028
 1582SOL    HW2 4788   0.082   1.655   0.074
 1583SOL     OW 4789   2.877   3.736   2.556
 1583SOL    HW1 4790   2.824   3.739   2.475
 1583SOL    HW2 4791   2.829   3.669   2.608
 1584SOL     OW 4792   3.308   4.265   2.792
 1584SOL    HW1 4793   3.263   4.184   2.822
 1584SOL    HW2 4794   3.373   4.278   2.864
 1585SOL     OW 4795   2.461   4.015   2.144
 1585SOL    HW1 4796   2.491   3.957   2.072
 1585SOL    HW2 4797   2.511   4.097   2.126
 1586SOL     OW 4798   2.517   0.035   2.858
 1586SOL    HW1 4799   2.466  -0.033   2.809
 1586SOL    HW2 4800   2.474   0.117   2.824
 1587SOL     OW 4801   2.216   3.785   2.468
 1587SOL    HW1 4802   2.192   3.880   2.473
 1587SOL    HW2 4803   2.204   3.756   2.560
 1588SOL     OW 4804   3.424   4.082   2.235
 1588SOL    HW1 4805   3.498   4.018   2.245
 1588SOL    HW2 4806   3.402   4.099   2.329
 1589SOL     OW 4807   3.296   3.967   2.015
 1589SOL    HW1 4808   3.270   3.880   2.051
 1589SOL    HW2 4809   3.335   4.011   2.093
 1590SOL     OW 4810   2.127   4.211   2.913
 1590SOL    HW1 4811   2.099   4.120   2.887
 1590SOL    HW2 4812   2.202   4.220   2.850
 1591SOL     OW 4813   2.850   0.159   3.051
 1591SOL    HW1 4814   2.928   0.146   3.107
 1591SOL    HW2 4815   2.781   0.177   3.118
 1592SOL     OW 4816   6.189   4.201   3.025
 1592SOL    HW1 4817   6.264   4.211   2.964
 1592SOL    HW2 4818   6.234   4.179   3.108
 1593SOL     OW 4819   2.605   4.255   2.104
 1593SOL    HW1 4820   2.683   4.203   2.078
 1593SOL    HW2 4821   2.631   4.290   2.191
 1594SOL     OW 4822   3.470   4.279   3.002
 1594SOL    HW1 4823   3.412   4.273   3.081
 1594SOL    HW2 4824   3.551   4.315   3.042
 1595SOL     OW 4825   3.616   3.902   2.298
 1595SOL    HW1 4826   3.680   3.882   2.225
 1595SOL    HW2 4827   3.587   3.813   2.326
 1596SOL     OW 4828   3.675   3.875   2.878
 1596SOL    HW1 4829   3.701   3.790   2.839
 1596SOL    HW2 4830   3.606   3.905   2.815
 1597SOL     OW 4831   2.162   4.046   2.489
 1597SOL    HW1 4832   2.070   4.066   2.514
 1597SOL    HW2 4833   2.214   4.082   2.564
 1598SOL     OW 4834   2.944   3.930   2.741
 1598SOL    HW1 4835   2.928   3.863   2.671
 1598SOL    HW2 4836   2.857   3.971   2.750
 1599SOL     OW 4837   1.939   4.040   1.845
 1599SOL    HW1 4838   1.852   4.035   1.802
 1599SOL    HW2 4839   1.980   4.113   1.794
 1600SOL     OW 4840   1.894   3.869   2.092
 1600SOL    HW1 4841   1.882   3.930   2.018
 1600SOL    HW2 4842   1.985   3.838   2.075
 1601SOL     OW 4843   3.054   3.984   2.384
 1601SOL    HW1 4844   3.129   3.923   2.377
 1601SOL    HW2 4845   3.083   4.045   2.454
 1602SOL     OW 4846   2.297   4.189   2.285
 1602SOL    HW1 4847   2.345   4.120   2.236
 1602SOL    HW2 4848   2.248   4.136   2.351
 1603SOL     OW 4849   3.233   3.718   2.116
 1603SOL    HW1 4850   3.301   3.648   2.111
 1603SOL    HW2 4851   3.154   3.671   2.082
 1604SOL     OW 4852   3.135   4.148   2.582
 1604SOL    HW1 4853   3.110   4.240   2.594
 1604SOL    HW2 4854   3.131   4.113   2.672
 1605SOL     OW 4855   3.481   3.939   2.704
 1605SOL    HW1 4856   3.407   3.884   2.735
 1605SOL    HW2 4857   3.440   4.001   2.642
 1606SOL     OW 4858   3.938   0.321   0.994
 1606SOL    HW1 4859   3.989   0.282   1.067
 1606SOL    HW2 4860   3.853   0.274   1.001
 1607SOL     OW 4861   3.690   0.431   0.664
 1607SOL    HW1 4862   3.606   0.473   0.692
 1607SOL    HW2 4863   3.654   0.352   0.618
 1608SOL     OW 4864   4.422   0.999   0.702
 1608SOL    HW1 4865   4.490   1.053   0.744
 1608SOL    HW2 4866   4.347   1.060   0.693
 1609SOL     OW 4867   4.035   1.397   1.046
 1609SOL    HW1 4868   3.978   1.318   1.050
 1609SOL    HW2 4869   4.001   1.441   0.968
 1610SOL     OW 4870   4.200   0.460   1.483
 1610SOL    HW1 4871   4.293   0.478   1.456
 1610SOL    HW2 4872   4.208   0.463   1.580
 1611SOL     OW 4873   4.073   1.636   0.468
 1611SOL    HW1 4874   4.083   1.722   0.511
 1611SOL    HW2 4875   4.167   1.609   0.457
 1612SOL     OW 4876   4.004   1.368   0.465
 1612SOL    HW1 4877   4.029   1.461   0.471
 1612SOL    HW2 4878   3.942   1.357   0.538
 1613SOL     OW 4879   4.033   1.090   0.862
 1613SOL    HW1 4880   4.041   1.000   0.897
 1613SOL    HW2 4881   3.973   1.130   0.928
 1614SOL     OW 4882   3.828   0.669   0.609
 1614SOL    HW1 4883   3.779   0.588   0.630
 1614SOL    HW2 4884   3.824   0.717   0.694
 1615SOL     OW 4885   3.867   0.753   1.655
 1615SOL    HW1 4886   3.961   0.778   1.659
 1615SOL    HW2 4887   3.825   0.841   1.663
 1616SOL     OW 4888   3.969   0.973   1.313
 1616SOL    HW1 4889   4.057   0.948   1.345
 1616SOL    HW2 4890   3.971   0.946   1.221
 1617SOL     OW 4891   4.062   0.220   1.734
 1617SOL    HW1 4892   4.119   0.299   1.741
 1617SOL    HW2 4893   4.041   0.205   1.828
 1618SOL     OW 4894   3.822   0.797   0.849
 1618SOL    HW1 4895   3.898   0.811   0.908
 1618SOL    HW2 4896   3.762   0.867   0.879
 1619SOL     OW 4897   3.839   1.943   1.645
 1619SOL    HW1 4898   3.847   1.895   1.731
 1619SOL    HW2 4899   3.758   1.996   1.659
 1620SOL     OW 4900   0.210   0.294   0.225
 1620SOL    HW1 4901   0.273   0.353   0.178
 1620SOL    HW2 4902   0.224   0.211   0.175
 1621SOL     OW 4903   4.047   1.811   0.806
 1621SOL    HW1 4904   4.094   1.729   0.823
 1621SOL    HW2 4905   4.115   1.878   0.829
 1622SOL     OW 4906   4.168   1.234   1.726
 1622SOL    HW1 4907   4.136   1.252   1.635
 1622SOL    HW2 4908   4.107   1.290   1.779
 1623SOL     OW 4909   3.969   0.313   1.475
 1623SOL    HW1 4910   4.048   0.370   1.477
 1623SOL    HW2 4911   3.979   0.265   1.560
 1624SOL     OW 4912   4.033   1.790   1.271
 1624SOL    HW1 4913   4.031   1.790   1.369
 1624SOL    HW2 4914   4.071   1.703   1.253
 1625SOL     OW 4915   4.084   0.729   0.510
 1625SOL    HW1 4916   4.125   0.648   0.545
 1625SOL    HW2 4917   3.993   0.721   0.545
 1626SOL     OW 4918   0.019   0.069   0.006
 1626SOL    HW1 4919   0.112   0.065   0.034
 1626SOL    HW2 4920   0.003   0.165   0.003
 1627SOL     OW 4921   4.196   0.062   0.363
 1627SOL    HW1 4922   4.147   0.059   0.447
 1627SOL    HW2 4923   4.273   0.116   0.388
 1628SOL     OW 4924   4.214   1.171   0.675
 1628SOL    HW1 4925   4.156   1.148   0.751
 1628SOL    HW2 4926   4.156   1.147   0.601
 1629SOL     OW 4927   3.839   0.598   1.427
 1629SOL    HW1 4928   3.917   0.630   1.379
 1629SOL    HW2 4929   3.833   0.662   1.500
 1630SOL     OW 4930   4.311   0.240   1.123
 1630SOL    HW1 4931   4.334   0.147   1.140
 1630SOL    HW2 4932   4.220   0.245   1.156
 1631SOL     OW 4933   4.211   0.856   1.409
 1631SOL    HW1 4934   4.295   0.866   1.362
 1631SOL    HW2 4935   4.171   0.778   1.365
 1632SOL     OW 4936   3.832   1.554   1.338
 1632SOL    HW1 4937   3.819   1.643   1.302
 1632SOL    HW2 4938   3.928   1.543   1.330
 1633SOL     OW 4939   4.028   1.096   0.470
 1633SOL    HW1 4940   4.037   1.186   0.433
 1633SOL    HW2 4941   4.086   1.042   0.413
 1634SOL     OW 4942   4.272   0.619   0.933
 1634SOL    HW1 4943   4.322   0.658   0.859
 1634SOL    HW2 4944   4.333   0.632   1.008
 1635SOL     OW 4945   4.100   1.508   1.287
 1635SOL    HW1 4946   4.091   1.464   1.200
 1635SOL    HW2 4947   4.196   1.505   1.302
 1636SOL     OW 4948   4.131   0.818   1.666
 1636SOL    HW1 4949   4.161   0.843   1.576
 1636SOL    HW2 4950   4.210   0.776   1.703
 1637SOL     OW 4951   4.198   4.316   1.693
 1637SOL    HW1 4952   4.150   4.260   1.629
 1637SOL    HW2 4953   4.149   4.400   1.688
 1638SOL     OW 4954   4.269   0.945   1.092
 1638SOL    HW1 4955   4.299   1.027   1.049
 1638SOL    HW2 4956   4.344   0.927   1.151
 1639SOL     OW 4957   4.050   0.225   1.225
 1639SOL    HW1 4958   4.026   0.265   1.311
 1639SOL    HW2 4959   4.047   0.130   1.249
 1640SOL     OW 4960   3.760   1.304   1.251
 1640SOL    HW1 4961   3.781   1.250   1.329
 1640SOL    HW2 4962   3.779   1.394   1.280
 1641SOL     OW 4963   4.055   0.090   0.587
 1641SOL    HW1 4964   4.013   0.164   0.634
 1641SOL    HW2 4965   3.987   0.021   0.589
 1642SOL     OW 4966   4.050   1.016   1.843
 1642SOL    HW1 4967   4.102   1.091   1.808
 1642SOL    HW2 4968   4.083   0.942   1.789
 1643SOL     OW 4969   4.029   0.850   1.026
 1643SOL    HW1 4970   4.119   0.879   1.049
 1643SOL    HW2 4971   4.035   0.754   1.040
 1644SOL     OW 4972   4.042   0.569   1.053
 1644SOL    HW1 4973   4.008   0.485   1.018
 1644SOL    HW2 4974   4.124   0.580   1.000
 1645SOL     OW 4975   3.801   1.802   0.939
 1645SOL    HW1 4976   3.767   1.722   0.894
 1645SOL    HW2 4977   3.890   1.811   0.900
 1646SOL     OW 4978   3.704   0.446   1.169
 1646SOL    HW1 4979   3.693   0.367   1.113
 1646SOL    HW2 4980   3.765   0.500   1.117
 1647SOL     OW 4981   3.937   0.505   1.753
 1647SOL    HW1 4982   4.034   0.496   1.745
 1647SOL    HW2 4983   3.921   0.592   1.712
 1648SOL     OW 4984   4.390   0.517   0.284
 1648SOL    HW1 4985   4.444   0.437   0.273
 1648SOL    HW2 4986   4.426   0.556   0.365
 1649SOL     OW 4987   3.917   1.569   1.698
 1649SOL    HW1 4988   3.906   1.642   1.761
 1649SOL    HW2 4989   3.952   1.498   1.755
 1650SOL     OW 4990   4.125   0.455   0.310
 1650SOL    HW1 4991   4.218   0.481   0.294
 1650SOL    HW2 4992   4.076   0.523   0.259
 1651SOL     OW 4993   3.827   1.144   1.466
 1651SOL    HW1 4994   3.823   1.097   1.552
 1651SOL    HW2 4995   3.872   1.077   1.409
 1652SOL     OW 4996   3.848   1.192   1.025
 1652SOL    HW1 4997   3.806   1.229   1.106
 1652SOL    HW2 4998   3.780   1.129   0.995
 1653SOL     OW 4999   3.889   1.788   1.863
 1653SOL    HW1 5000   3.854   1.718   1.922
 1653SOL    HW2 5001   3.937   1.845   1.927
 1654SOL     OW 5002   3.928   0.310   0.716
 1654SOL    HW1 5003   3.851   0.367   0.699
 1654SOL    HW2 5004   3.948   0.328   0.810
 1655SOL     OW 5005   4.064   1.299   1.489
 1655SOL    HW1 5006   4.067   1.369   1.422
 1655SOL    HW2 5007   3.980   1.255   1.472
 1656SOL     OW 5008   4.330   1.555   0.451
 1656SOL    HW1 5009   4.361   1.475   0.496
 1656SOL    HW2 5010   4.405   1.616   0.462
 1657SOL     OW 5011   3.811   1.018   1.708
 1657SOL    HW1 5012   3.735   1.019   1.771
 1657SOL    HW2 5013   3.886   1.029   1.769
 1658SOL     OW 5014   4.013   1.771   1.537
 1658SOL    HW1 5015   3.942   1.829   1.571
 1658SOL    HW2 5016   3.993   1.688   1.584
 1659SOL     OW 5017   0.296   1.463   0.010
 1659SOL    HW1 5018   0.227   1.400   0.035
 1659SOL    HW2 5019   0.309   1.445  -0.084
 1660SOL     OW 5020   3.994   1.374   1.875
 1660SOL    HW1 5021   3.911   1.340   1.911
 1660SOL    HW2 5022   4.040   1.401   1.956
 1661SOL     OW 5023   3.861   1.201   0.664
 1661SOL    HW1 5024   3.906   1.167   0.742
 1661SOL    HW2 5025   3.907   1.154   0.592
 1662SOL     OW 5026   4.423   1.323   1.713
 1662SOL    HW1 5027   4.332   1.293   1.733
 1662SOL    HW2 5028   4.419   1.333   1.618
 1663SOL     OW 5029   4.127   0.456   0.580
 1663SOL    HW1 5030   4.115   0.448   0.484
 1663SOL    HW2 5031   4.052   0.405   0.616
 1664SOL     OW 5032   4.084   0.639   1.309
 1664SOL    HW1 5033   4.126   0.564   1.354
 1664SOL    HW2 5034   4.073   0.608   1.217
 1665SOL     OW 5035   3.788   1.001   0.361
 1665SOL    HW1 5036   3.869   1.026   0.407
 1665SOL    HW2 5037   3.795   0.904   0.356
 1666SOL     OW 5038   3.934   0.545   2.027
 1666SOL    HW1 5039   3.844   0.568   2.055
 1666SOL    HW2 5040   3.921   0.520   1.934
 1667SOL     OW 5041   3.903   0.334   2.874
 1667SOL    HW1 5042   3.957   0.269   2.922
 1667SOL    HW2 5043   3.812   0.307   2.896
 1668SOL     OW 5044   3.704   0.426   2.494
 1668SOL    HW1 5045   3.613   0.450   2.517
 1668SOL    HW2 5046   3.691   0.361   2.422
 1669SOL     OW 5047   4.415   1.089   2.472
 1669SOL    HW1 5048   4.488   1.068   2.533
 1669SOL    HW2 5049   4.338   1.092   2.531
 1670SOL     OW 5050   4.030   1.431   2.961
 1670SOL    HW1 5051   4.053   1.355   3.019
 1670SOL    HW2 5052   4.028   1.389   2.875
 1671SOL     OW 5053   3.920   1.787   2.299
 1671SOL    HW1 5054   3.949   1.833   2.381
 1671SOL    HW2 5055   3.964   1.840   2.230
 1672SOL     OW 5056   3.930   1.515   2.320
 1672SOL    HW1 5057   3.934   1.612   2.306
 1672SOL    HW2 5058   3.888   1.508   2.406
 1673SOL     OW 5059   3.976   1.107   2.756
 1673SOL    HW1 5060   3.994   1.019   2.793
 1673SOL    HW2 5061   3.882   1.101   2.734
 1674SOL     OW 5062   3.838   0.658   2.419
 1674SOL    HW1 5063   3.798   0.575   2.451
 1674SOL    HW2 5064   3.837   0.713   2.501
 1675SOL     OW 5065   3.794   1.581   2.007
 1675SOL    HW1 5066   3.775   1.490   2.032
 1675SOL    HW2 5067   3.744   1.634   2.072
 1676SOL     OW 5068   4.203   0.822   2.152
 1676SOL    HW1 5069   4.272   0.885   2.181
 1676SOL    HW2 5070   4.183   0.771   2.233
 1677SOL     OW 5071   3.831   0.817   2.634
 1677SOL    HW1 5072   3.904   0.820   2.699
 1677SOL    HW2 5073   3.788   0.902   2.650
 1678SOL     OW 5074   4.668   0.304   1.881
 1678SOL    HW1 5075   4.709   0.366   1.944
 1678SOL    HW2 5076   4.665   0.222   1.934
 1679SOL     OW 5077   4.065   1.821   2.803
 1679SOL    HW1 5078   4.108   1.735   2.802
 1679SOL    HW2 5079   4.142   1.881   2.803
 1680SOL     OW 5080   3.999   0.999   2.112
 1680SOL    HW1 5081   4.013   1.013   2.016
 1680SOL    HW2 5082   4.067   0.931   2.130
 1681SOL     OW 5083   4.110   0.668   2.355
 1681SOL    HW1 5084   4.129   0.576   2.380
 1681SOL    HW2 5085   4.014   0.673   2.369
 1682SOL     OW 5086   4.296   0.038   1.947
 1682SOL    HW1 5087   4.350  -0.041   1.959
 1682SOL    HW2 5088   4.268   0.026   1.854
 1683SOL     OW 5089   4.130   0.187   2.267
 1683SOL    HW1 5090   4.115   0.097   2.301
 1683SOL    HW2 5091   4.224   0.187   2.241
 1684SOL     OW 5092   4.052   0.161   2.002
 1684SOL    HW1 5093   4.134   0.110   1.990
 1684SOL    HW2 5094   4.064   0.193   2.093
 1685SOL     OW 5095   4.185   1.200   2.612
 1685SOL    HW1 5096   4.113   1.168   2.671
 1685SOL    HW2 5097   4.137   1.202   2.527
 1686SOL     OW 5098   2.106   3.015   0.050
 1686SOL    HW1 5099   2.042   3.068   0.100
 1686SOL    HW2 5100   2.070   2.924   0.065
 1687SOL     OW 5101   1.626   3.679   0.012
 1687SOL    HW1 5102   1.645   3.766   0.048
 1687SOL    HW2 5103   1.709   3.656  -0.034
 1688SOL     OW 5104   4.022   1.183   2.390
 1688SOL    HW1 5105   4.036   1.238   2.311
 1688SOL    HW2 5106   4.010   1.096   2.351
 1689SOL     OW 5107   4.266   0.552   2.777
 1689SOL    HW1 5108   4.314   0.627   2.737
 1689SOL    HW2 5109   4.312   0.544   2.863
 1690SOL     OW 5110   1.936   3.739   0.128
 1690SOL    HW1 5111   1.918   3.704   0.039
 1690SOL    HW2 5112   2.034   3.734   0.132
 1691SOL     OW 5113   4.292   0.903   2.847
 1691SOL    HW1 5114   4.322   0.996   2.844
 1691SOL    HW2 5115   4.293   0.884   2.943
 1692SOL     OW 5116   4.109   0.100   2.607
 1692SOL    HW1 5117   4.051   0.178   2.602
 1692SOL    HW2 5118   4.080   0.049   2.528
 1693SOL     OW 5119   4.026   0.842   2.822
 1693SOL    HW1 5120   4.123   0.859   2.825
 1693SOL    HW2 5121   4.020   0.753   2.861
 1694SOL     OW 5122   4.022   0.576   2.902
 1694SOL    HW1 5123   3.975   0.491   2.888
 1694SOL    HW2 5124   4.104   0.562   2.850
 1695SOL     OW 5125   3.780   1.287   2.032
 1695SOL    HW1 5126   3.691   1.313   1.999
 1695SOL    HW2 5127   3.761   1.201   2.073
 1696SOL     OW 5128   3.786   1.774   2.830
 1696SOL    HW1 5129   3.763   1.696   2.774
 1696SOL    HW2 5130   3.881   1.784   2.813
 1697SOL     OW 5131   3.752   0.599   3.052
 1697SOL    HW1 5132   3.838   0.605   3.008
 1697SOL    HW2 5133   3.775   0.610   3.146
 1698SOL     OW 5134   4.514   0.482   2.180
 1698SOL    HW1 5135   4.459   0.403   2.178
 1698SOL    HW2 5136   4.492   0.522   2.266
 1699SOL     OW 5137   4.184   0.626   1.966
 1699SOL    HW1 5138   4.200   0.702   2.026
 1699SOL    HW2 5139   4.099   0.594   2.001
 1700SOL     OW 5140   3.927   0.309   2.605
 1700SOL    HW1 5141   3.848   0.352   2.567
 1700SOL    HW2 5142   3.922   0.338   2.699
 1701SOL     OW 5143   4.383   1.567   2.289
 1701SOL    HW1 5144   4.393   1.500   2.359
 1701SOL    HW2 5145   4.452   1.632   2.310
 1702SOL     OW 5146   4.034   1.330   2.158
 1702SOL    HW1 5147   3.949   1.304   2.119
 1702SOL    HW2 5148   4.007   1.408   2.212
 1703SOL     OW 5149   2.183   2.359   0.223
 1703SOL    HW1 5150   2.114   2.422   0.192
 1703SOL    HW2 5151   2.174   2.364   0.320
 1704SOL     OW 5152   3.740   0.340   1.838
 1704SOL    HW1 5153   3.676   0.410   1.823
 1704SOL    HW2 5154   3.820   0.379   1.800
 1705SOL     OW 5155   3.777   0.181   2.053
 1705SOL    HW1 5156   3.756   0.240   1.978
 1705SOL    HW2 5157   3.872   0.165   2.039
 1706SOL     OW 5158   3.815   1.315   2.545
 1706SOL    HW1 5159   3.787   1.236   2.593
 1706SOL    HW2 5160   3.890   1.281   2.494
 1707SOL     OW 5161   4.129   0.401   2.436
 1707SOL    HW1 5162   4.122   0.334   2.365
 1707SOL    HW2 5163   4.053   0.378   2.491
 1708SOL     OW 5164   1.974   2.782   0.085
 1708SOL    HW1 5165   1.997   2.692   0.114
 1708SOL    HW2 5166   1.931   2.764  -0.000
 1709SOL     OW 5167   3.744   1.047   2.175
 1709SOL    HW1 5168   3.839   1.033   2.153
 1709SOL    HW2 5169   3.716   0.955   2.187
 1710SOL     OW 5170   3.950   2.189   0.973
 1710SOL    HW1 5171   3.991   2.149   1.052
 1710SOL    HW2 5172   3.861   2.147   0.976
 1711SOL     OW 5173   3.704   2.313   0.628
 1711SOL    HW1 5174   3.615   2.305   0.668
 1711SOL    HW2 5175   3.695   2.258   0.549
 1712SOL     OW 5176   4.431   2.840   0.655
 1712SOL    HW1 5177   4.499   2.867   0.719
 1712SOL    HW2 5178   4.355   2.895   0.682
 1713SOL     OW 5179   4.050   3.278   1.039
 1713SOL    HW1 5180   3.967   3.227   1.037
 1713SOL    HW2 5181   4.082   3.267   0.949
 1714SOL     OW 5182   4.126   2.292   1.593
 1714SOL    HW1 5183   4.151   2.239   1.671
 1714SOL    HW2 5184   4.070   2.228   1.545
 1715SOL     OW 5185   4.009   3.550   0.470
 1715SOL    HW1 5186   4.036   3.616   0.537
 1715SOL    HW2 5187   4.096   3.512   0.446
 1716SOL     OW 5188   3.912   3.291   0.428
 1716SOL    HW1 5189   3.940   3.384   0.441
 1716SOL    HW2 5190   3.895   3.261   0.518
 1717SOL     OW 5191   4.005   3.003   0.851
 1717SOL    HW1 5192   3.998   2.908   0.870
 1717SOL    HW2 5193   3.945   3.041   0.919
 1718SOL     OW 5194   3.821   2.569   0.570
 1718SOL    HW1 5195   3.785   2.482   0.597
 1718SOL    HW2 5196   3.798   2.625   0.646
 1719SOL     OW 5197   3.928   2.604   1.561
 1719SOL    HW1 5198   4.024   2.604   1.577
 1719SOL    HW2 5199   3.905   2.696   1.584
 1720SOL     OW 5200   3.977   2.822   1.269
 1720SOL    HW1 5201   4.061   2.774   1.281
 1720SOL    HW2 5202   3.946   2.789   1.185
 1721SOL     OW 5203   4.130   2.153   1.834
 1721SOL    HW1 5204   4.148   2.235   1.883
 1721SOL    HW2 5205   4.094   2.097   1.905
 1722SOL     OW 5206   3.759   2.759   0.766
 1722SOL    HW1 5207   3.841   2.747   0.818
 1722SOL    HW2 5208   3.716   2.831   0.816
 1723SOL     OW 5209   3.843   3.745   1.634
 1723SOL    HW1 5210   3.859   3.732   1.730
 1723SOL    HW2 5211   3.788   3.667   1.614
 1724SOL     OW 5212   0.239   2.189   0.053
 1724SOL    HW1 5213   0.286   2.194  -0.032
 1724SOL    HW2 5214   0.278   2.109   0.093
 1725SOL     OW 5215   4.257   1.966   0.874
 1725SOL    HW1 5216   4.264   2.004   0.964
 1725SOL    HW2 5217   4.278   2.044   0.819
 1726SOL     OW 5218   4.164   3.717   0.908
 1726SOL    HW1 5219   4.245   3.670   0.936
 1726SOL    HW2 5220   4.192   3.809   0.920
 1727SOL     OW 5221   4.197   3.055   1.701
 1727SOL    HW1 5222   4.162   3.090   1.617
 1727SOL    HW2 5223   4.135   3.095   1.766
 1728SOL     OW 5224   3.947   2.124   1.469
 1728SOL    HW1 5225   3.862   2.171   1.458
 1728SOL    HW2 5226   3.921   2.053   1.531
 1729SOL     OW 5227   4.032   3.643   1.211
 1729SOL    HW1 5228   4.069   3.557   1.237
 1729SOL    HW2 5229   3.995   3.625   1.124
 1730SOL     OW 5230   4.061   2.639   0.446
 1730SOL    HW1 5231   4.109   2.555   0.456
 1730SOL    HW2 5232   3.979   2.619   0.494
 1731SOL     OW 5233   4.356   1.938   0.098
 1731SOL    HW1 5234   4.405   1.856   0.076
 1731SOL    HW2 5235   4.347   1.978   0.010
 1732SOL     OW 5236   4.244   2.103   0.484
 1732SOL    HW1 5237   4.185   2.047   0.431
 1732SOL    HW2 5238   4.329   2.091   0.438
 1733SOL     OW 5239   4.233   3.020   0.702
 1733SOL    HW1 5240   4.155   3.019   0.762
 1733SOL    HW2 5241   4.190   2.989   0.619
 1734SOL     OW 5242   3.863   2.453   1.340
 1734SOL    HW1 5243   3.958   2.431   1.326
 1734SOL    HW2 5244   3.870   2.513   1.416
 1735SOL     OW 5245   4.293   2.052   1.130
 1735SOL    HW1 5246   4.324   1.987   1.195
 1735SOL    HW2 5247   4.201   2.067   1.159
 1736SOL     OW 5248   4.207   2.668   1.279
 1736SOL    HW1 5249   4.291   2.663   1.327
 1736SOL    HW2 5250   4.172   2.578   1.293
 1737SOL     OW 5251   3.839   3.431   1.348
 1737SOL    HW1 5252   3.814   3.515   1.305
 1737SOL    HW2 5253   3.935   3.428   1.333
 1738SOL     OW 5254   4.109   2.914   0.489
 1738SOL    HW1 5255   4.065   2.954   0.413
 1738SOL    HW2 5256   4.094   2.819   0.476
 1739SOL     OW 5257   4.242   2.439   0.857
 1739SOL    HW1 5258   4.303   2.496   0.808
 1739SOL    HW2 5259   4.286   2.436   0.944
 1740SOL     OW 5260   4.106   3.386   1.280
 1740SOL    HW1 5261   4.096   3.341   1.194
 1740SOL    HW2 5262   4.202   3.385   1.294
 1741SOL     OW 5263   4.192   2.581   1.624
 1741SOL    HW1 5264   4.284   2.606   1.604
 1741SOL    HW2 5265   4.197   2.484   1.630
 1742SOL     OW 5266   4.205   1.959   1.636
 1742SOL    HW1 5267   4.134   1.899   1.610
 1742SOL    HW2 5268   4.167   2.013   1.707
 1743SOL     OW 5269   4.218   2.775   1.027
 1743SOL    HW1 5270   4.285   2.846   1.030
 1743SOL    HW2 5271   4.224   2.736   1.116
 1744SOL     OW 5272   4.034   2.057   1.212
 1744SOL    HW1 5273   4.006   2.088   1.300
 1744SOL    HW2 5274   4.025   1.961   1.222
 1745SOL     OW 5275   3.748   3.192   1.265
 1745SOL    HW1 5276   3.787   3.129   1.328
 1745SOL    HW2 5277   3.776   3.277   1.302
 1746SOL     OW 5278   3.913   1.910   0.585
 1746SOL    HW1 5279   3.921   2.004   0.609
 1746SOL    HW2 5280   3.954   1.869   0.663
 1747SOL     OW 5281   4.118   2.818   1.821
 1747SOL    HW1 5282   4.170   2.892   1.785
 1747SOL    HW2 5283   4.169   2.741   1.794
 1748SOL     OW 5284   3.980   2.732   0.921
 1748SOL    HW1 5285   4.071   2.746   0.954
 1748SOL    HW2 5286   3.974   2.635   0.928
 1749SOL     OW 5287   3.981   2.459   0.947
 1749SOL    HW1 5288   3.964   2.363   0.958
 1749SOL    HW2 5289   4.072   2.456   0.911
 1750SOL     OW 5290   3.886   3.616   0.968
 1750SOL    HW1 5291   3.849   3.542   0.914
 1750SOL    HW2 5292   3.968   3.638   0.921
 1751SOL     OW 5293   3.747   2.525   1.105
 1751SOL    HW1 5294   3.819   2.506   1.043
 1751SOL    HW2 5295   3.788   2.502   1.191
 1752SOL     OW 5296   3.903   2.400   1.745
 1752SOL    HW1 5297   3.984   2.358   1.713
 1752SOL    HW2 5298   3.890   2.470   1.678
 1753SOL     OW 5299   0.257   2.391   0.253
 1753SOL    HW1 5300   0.225   2.310   0.210
 1753SOL    HW2 5301   0.209   2.392   0.338
 1754SOL     OW 5302   3.957   3.401   1.736
 1754SOL    HW1 5303   3.914   3.415   1.822
 1754SOL    HW2 5304   3.997   3.314   1.751
 1755SOL     OW 5305   4.140   2.284   0.197
 1755SOL    HW1 5306   4.209   2.295   0.130
 1755SOL    HW2 5307   4.061   2.315   0.148
 1756SOL     OW 5308   3.888   3.016   1.434
 1756SOL    HW1 5309   3.884   2.965   1.517
 1756SOL    HW2 5310   3.919   2.947   1.371
 1757SOL     OW 5311   3.822   3.120   1.015
 1757SOL    HW1 5312   3.789   3.142   1.104
 1757SOL    HW2 5313   3.749   3.066   0.979
 1758SOL     OW 5314   3.910   3.680   1.883
 1758SOL    HW1 5315   3.890   3.591   1.917
 1758SOL    HW2 5316   3.969   3.716   1.951
 1759SOL     OW 5317   3.933   2.163   0.687
 1759SOL    HW1 5318   3.860   2.226   0.675
 1759SOL    HW2 5319   3.955   2.176   0.781
 1760SOL     OW 5320   4.099   3.185   1.486
 1760SOL    HW1 5321   4.091   3.259   1.424
 1760SOL    HW2 5322   4.021   3.130   1.462
 1761SOL     OW 5323   4.255   3.445   0.431
 1761SOL    HW1 5324   4.270   3.351   0.410
 1761SOL    HW2 5325   4.345   3.480   0.442
 1762SOL     OW 5326   3.894   2.861   1.671
 1762SOL    HW1 5327   3.830   2.876   1.742
 1762SOL    HW2 5328   3.976   2.849   1.722
 1763SOL     OW 5329   4.095   3.624   1.630
 1763SOL    HW1 5330   4.010   3.669   1.614
 1763SOL    HW2 5331   4.065   3.539   1.666
 1764SOL     OW 5332   4.026   3.167   1.874
 1764SOL    HW1 5333   3.941   3.138   1.912
 1764SOL    HW2 5334   4.075   3.188   1.955
 1765SOL     OW 5335   3.852   3.138   0.660
 1765SOL    HW1 5336   3.914   3.092   0.719
 1765SOL    HW2 5337   3.835   3.068   0.593
 1766SOL     OW 5338   4.386   3.243   1.640
 1766SOL    HW1 5339   4.332   3.169   1.675
 1766SOL    HW2 5340   4.342   3.261   1.557
 1767SOL     OW 5341   4.168   2.384   0.454
 1767SOL    HW1 5342   4.162   2.351   0.362
 1767SOL    HW2 5343   4.141   2.306   0.504
 1768SOL     OW 5344   4.134   2.407   1.335
 1768SOL    HW1 5345   4.145   2.370   1.424
 1768SOL    HW2 5346   4.203   2.361   1.285
 1769SOL     OW 5347   3.792   2.958   0.467
 1769SOL    HW1 5348   3.853   2.992   0.399
 1769SOL    HW2 5349   3.770   2.870   0.431
 1770SOL     OW 5350   3.912   2.523   1.991
 1770SOL    HW1 5351   3.832   2.488   2.033
 1770SOL    HW2 5352   3.904   2.487   1.901
 1771SOL     OW 5353   3.944   2.185   2.863
 1771SOL    HW1 5354   3.978   2.138   2.941
 1771SOL    HW2 5355   3.856   2.143   2.854
 1772SOL     OW 5356   3.690   2.279   2.505
 1772SOL    HW1 5357   3.602   2.291   2.546
 1772SOL    HW2 5358   3.668   2.212   2.437
 1773SOL     OW 5359   4.446   2.853   2.488
 1773SOL    HW1 5360   4.504   2.893   2.555
 1773SOL    HW2 5361   4.365   2.908   2.496
 1774SOL     OW 5362   3.940   3.119   2.899
 1774SOL    HW1 5363   3.849   3.150   2.883
 1774SOL    HW2 5364   3.957   3.151   2.988
 1775SOL     OW 5365   3.878   3.605   2.348
 1775SOL    HW1 5366   3.896   3.670   2.418
 1775SOL    HW2 5367   3.968   3.588   2.316
 1776SOL     OW 5368   3.951   3.321   2.358
 1776SOL    HW1 5369   3.900   3.396   2.389
 1776SOL    HW2 5370   3.925   3.250   2.419
 1777SOL     OW 5371   4.046   2.979   2.695
 1777SOL    HW1 5372   4.037   2.887   2.724
 1777SOL    HW2 5373   4.012   3.029   2.772
 1778SOL     OW 5374   3.816   2.510   2.415
 1778SOL    HW1 5375   3.775   2.426   2.444
 1778SOL    HW2 5376   3.807   2.564   2.495
 1779SOL     OW 5377   3.831   3.428   1.979
 1779SOL    HW1 5378   3.807   3.337   2.004
 1779SOL    HW2 5379   3.774   3.481   2.037
 1780SOL     OW 5380   4.254   2.596   2.118
 1780SOL    HW1 5381   4.293   2.679   2.147
 1780SOL    HW2 5382   4.193   2.574   2.191
 1781SOL     OW 5383   3.786   2.661   2.642
 1781SOL    HW1 5384   3.875   2.693   2.669
 1781SOL    HW2 5385   3.757   2.614   2.721
 1782SOL     OW 5386   4.612   2.076   2.139
 1782SOL    HW1 5387   4.709   2.082   2.141
 1782SOL    HW2 5388   4.598   2.000   2.081
 1783SOL     OW 5389   4.301   1.980   2.770
 1783SOL    HW1 5390   4.266   2.070   2.761
 1783SOL    HW2 5391   4.303   1.951   2.675
 1784SOL     OW 5392   4.037   3.763   2.814
 1784SOL    HW1 5393   4.060   3.741   2.906
 1784SOL    HW2 5394   4.117   3.809   2.783
 1785SOL     OW 5395   3.988   2.783   2.069
 1785SOL    HW1 5396   4.042   2.801   1.991
 1785SOL    HW2 5397   3.973   2.687   2.058
 1786SOL     OW 5398   4.078   2.513   2.311
 1786SOL    HW1 5399   4.094   2.419   2.329
 1786SOL    HW2 5400   3.986   2.523   2.340
 1787SOL     OW 5401   4.313   1.900   2.066
 1787SOL    HW1 5402   4.320   1.848   1.985
 1787SOL    HW2 5403   4.218   1.923   2.067
 1788SOL     OW 5404   4.282   1.908   2.518
 1788SOL    HW1 5405   4.191   1.898   2.486
 1788SOL    HW2 5406   4.330   1.931   2.436
 1789SOL     OW 5407   4.232   3.013   2.497
 1789SOL    HW1 5408   4.171   3.010   2.574
 1789SOL    HW2 5409   4.172   2.987   2.425
 1790SOL     OW 5410   4.047   2.946   2.303
 1790SOL    HW1 5411   4.059   3.020   2.241
 1790SOL    HW2 5412   4.035   2.871   2.243
 1791SOL     OW 5413   4.236   2.527   2.750
 1791SOL    HW1 5414   4.307   2.544   2.684
 1791SOL    HW2 5415   4.288   2.501   2.828
 1792SOL     OW 5416   3.998   1.912   2.530
 1792SOL    HW1 5417   3.969   2.004   2.541
 1792SOL    HW2 5418   4.003   1.881   2.621
 1793SOL     OW 5419   4.028   2.711   2.764
 1793SOL    HW1 5420   4.109   2.665   2.734
 1793SOL    HW2 5421   4.002   2.653   2.836
 1794SOL     OW 5422   4.006   2.454   2.884
 1794SOL    HW1 5423   3.977   2.361   2.877
 1794SOL    HW2 5424   4.082   2.456   2.823
 1795SOL     OW 5425   3.812   3.119   2.046
 1795SOL    HW1 5426   3.723   3.151   2.019
 1795SOL    HW2 5427   3.788   3.034   2.087
 1796SOL     OW 5428   3.772   3.639   2.786
 1796SOL    HW1 5429   3.768   3.554   2.738
 1796SOL    HW2 5430   3.867   3.655   2.793
 1797SOL     OW 5431   4.569   2.354   2.123
 1797SOL    HW1 5432   4.560   2.257   2.132
 1797SOL    HW2 5433   4.534   2.386   2.208
 1798SOL     OW 5434   4.163   2.396   1.953
 1798SOL    HW1 5435   4.220   2.457   2.004
 1798SOL    HW2 5436   4.076   2.433   1.976
 1799SOL     OW 5437   3.679   3.205   2.870
 1799SOL    HW1 5438   3.633   3.241   2.947
 1799SOL    HW2 5439   3.620   3.132   2.843
 1800SOL     OW 5440   3.930   2.170   2.581
 1800SOL    HW1 5441   3.843   2.210   2.560
 1800SOL    HW2 5442   3.938   2.186   2.676
 1801SOL     OW 5443   4.315   3.528   2.202
 1801SOL    HW1 5444   4.399   3.543   2.248
 1801SOL    HW2 5445   4.253   3.583   2.252
 1802SOL     OW 5446   4.058   3.177   2.155
 1802SOL    HW1 5447   3.967   3.161   2.122
 1802SOL    HW2 5448   4.039   3.242   2.227
 1803SOL     OW 5449   2.166   4.289   0.257
 1803SOL    HW1 5450   2.202   4.376   0.230
 1803SOL    HW2 5451   2.158   4.300   0.353
 1804SOL     OW 5452   3.737   2.227   1.882
 1804SOL    HW1 5453   3.695   2.183   1.806
 1804SOL    HW2 5454   3.804   2.281   1.838
 1805SOL     OW 5455   3.724   2.038   2.089
 1805SOL    HW1 5456   3.716   2.103   2.017
 1805SOL    HW2 5457   3.821   2.023   2.088
 1806SOL     OW 5458   3.890   3.085   2.492
 1806SOL    HW1 5459   3.937   3.055   2.572
 1806SOL    HW2 5460   3.929   3.027   2.424
 1807SOL     OW 5461   4.095   2.240   2.368
 1807SOL    HW1 5462   4.069   2.183   2.295
 1807SOL    HW2 5463   4.033   2.214   2.439
 1808SOL     OW 5464   3.745   2.872   2.150
 1808SOL    HW1 5465   3.834   2.843   2.122
 1808SOL    HW2 5466   3.705   2.786   2.175
 1809SOL     OW 5467   3.954   3.972   0.995
 1809SOL    HW1 5468   3.983   3.939   1.082
 1809SOL    HW2 5469   3.867   3.928   0.985
 1810SOL     OW 5470   3.701   4.031   0.673
 1810SOL    HW1 5471   3.619   4.059   0.718
 1810SOL    HW2 5472   3.665   3.977   0.600
 1811SOL     OW 5473   4.114   4.125   1.510
 1811SOL    HW1 5474   4.186   4.061   1.520
 1811SOL    HW2 5475   4.035   4.067   1.510
 1812SOL     OW 5476   3.838   4.248   0.591
 1812SOL    HW1 5477   3.794   4.165   0.619
 1812SOL    HW2 5478   3.800   4.311   0.655
 1813SOL     OW 5479   4.037   3.998   1.784
 1813SOL    HW1 5480   4.010   4.086   1.755
 1813SOL    HW2 5481   3.955   3.965   1.823
 1814SOL     OW 5482   3.747   0.109   0.763
 1814SOL    HW1 5483   3.817   0.174   0.746
 1814SOL    HW2 5484   3.677   0.138   0.701
 1815SOL     OW 5485   0.267   4.006   0.172
 1815SOL    HW1 5486   0.259   4.081   0.234
 1815SOL    HW2 5487   0.175   4.000   0.139
 1816SOL     OW 5488   4.279   3.969   0.949
 1816SOL    HW1 5489   4.275   3.972   1.047
 1816SOL    HW2 5490   4.255   4.060   0.925
 1817SOL     OW 5491   3.897   3.963   1.493
 1817SOL    HW1 5492   3.808   4.002   1.496
 1817SOL    HW2 5493   3.884   3.882   1.547
 1818SOL     OW 5494   4.344   3.789   0.543
 1818SOL    HW1 5495   4.257   3.764   0.579
 1818SOL    HW2 5496   4.322   3.807   0.449
 1819SOL     OW 5497   3.807   4.317   1.472
 1819SOL    HW1 5498   3.888   4.312   1.418
 1819SOL    HW2 5499   3.756   4.383   1.423
 1820SOL     OW 5500   4.279   3.955   1.216
 1820SOL    HW1 5501   4.319   3.878   1.258
 1820SOL    HW2 5502   4.184   3.943   1.235
 1821SOL     OW 5503   4.246   4.247   0.943
 1821SOL    HW1 5504   4.279   4.310   0.877
 1821SOL    HW2 5505   4.303   4.268   1.019
 1822SOL     OW 5506   4.239   3.825   1.743
 1822SOL    HW1 5507   4.192   3.747   1.704
 1822SOL    HW2 5508   4.164   3.888   1.753
 1823SOL     OW 5509   4.018   3.905   1.253
 1823SOL    HW1 5510   3.968   3.921   1.335
 1823SOL    HW2 5511   4.018   3.807   1.248
 1824SOL     OW 5512   4.095   3.737   0.648
 1824SOL    HW1 5513   4.043   3.819   0.659
 1824SOL    HW2 5514   4.122   3.719   0.740
 1825SOL     OW 5515   4.006   4.222   1.066
 1825SOL    HW1 5516   3.987   4.133   1.030
 1825SOL    HW2 5517   4.086   4.246   1.015
 1826SOL     OW 5518   3.755   4.190   1.186
 1826SOL    HW1 5519   3.837   4.213   1.140
 1826SOL    HW2 5520   3.760   4.093   1.191
 1827SOL     OW 5521   3.885   4.243   1.730
 1827SOL    HW1 5522   3.849   4.259   1.641
 1827SOL    HW2 5523   3.912   4.331   1.758
 1828SOL     OW 5524   0.259   4.226   0.338
 1828SOL    HW1 5525   0.335   4.197   0.393
 1828SOL    HW2 5526   0.195   4.248   0.408
 1829SOL     OW 5527   4.192   4.232   0.145
 1829SOL    HW1 5528   4.244   4.295   0.091
 1829SOL    HW2 5529   4.191   4.278   0.231
 1830SOL     OW 5530   3.960   3.962   0.718
 1830SOL    HW1 5531   3.865   3.983   0.707
 1830SOL    HW2 5532   3.971   3.974   0.814
 1831SOL     OW 5533   3.681   4.103   0.060
 1831SOL    HW1 5534   3.685   4.043  -0.016
 1831SOL    HW2 5535   3.773   4.135   0.068
 1832SOL     OW 5536   4.111   4.072   0.516
 1832SOL    HW1 5537   4.047   4.081   0.444
 1832SOL    HW2 5538   4.055   4.041   0.589
 1833SOL     OW 5539   4.035   4.305   1.322
 1833SOL    HW1 5540   4.079   4.238   1.378
 1833SOL    HW2 5541   4.033   4.261   1.234
 1834SOL     OW 5542   3.901   4.005   2.820
 1834SOL    HW1 5543   3.953   3.923   2.826
 1834SOL    HW2 5544   3.813   3.973   2.847
 1835SOL     OW 5545   3.674   4.089   2.479
 1835SOL    HW1 5546   3.584   4.096   2.515
 1835SOL    HW2 5547   3.661   4.019   2.412
 1836SOL     OW 5548   3.748   0.015   2.436
 1836SOL    HW1 5549   3.714  -0.076   2.438
 1836SOL    HW2 5550   3.751   0.037   2.531
 1837SOL     OW 5551   3.795   0.074   2.697
 1837SOL    HW1 5552   3.851   0.021   2.758
 1837SOL    HW2 5553   3.853   0.148   2.673
 1838SOL     OW 5554   4.696   4.175   1.911
 1838SOL    HW1 5555   4.709   4.260   1.958
 1838SOL    HW2 5556   4.599   4.164   1.920
 1839SOL     OW 5557   4.227   3.946   2.721
 1839SOL    HW1 5558   4.279   3.917   2.799
 1839SOL    HW2 5559   4.214   4.041   2.739
 1840SOL     OW 5560   4.330   3.879   1.995
 1840SOL    HW1 5561   4.417   3.835   2.005
 1840SOL    HW2 5562   4.300   3.847   1.908
 1841SOL     OW 5563   4.156   3.719   2.323
 1841SOL    HW1 5564   4.105   3.745   2.402
 1841SOL    HW2 5565   4.229   3.784   2.324
 1842SOL     OW 5566   4.059   3.799   2.079
 1842SOL    HW1 5567   4.140   3.839   2.045
 1842SOL    HW2 5568   4.089   3.762   2.163
 1843SOL     OW 5569   4.331   3.823   2.940
 1843SOL    HW1 5570   4.376   3.738   2.922
 1843SOL    HW2 5571   4.263   3.796   3.004
 1844SOL     OW 5572   4.205   4.214   2.755
 1844SOL    HW1 5573   4.186   4.286   2.693
 1844SOL    HW2 5574   4.259   4.259   2.823
 1845SOL     OW 5575   3.992   3.790   2.527
 1845SOL    HW1 5576   3.976   3.886   2.527
 1845SOL    HW2 5577   4.002   3.772   2.622
 1846SOL     OW 5578   3.962   4.264   2.862
 1846SOL    HW1 5579   3.921   4.175   2.866
 1846SOL    HW2 5580   4.048   4.240   2.822
 1847SOL     OW 5581   4.541   0.018   2.256
 1847SOL    HW1 5582   4.584  -0.071   2.249
 1847SOL    HW2 5583   4.516   0.015   2.350
 1848SOL     OW 5584   3.933   4.060   2.550
 1848SOL    HW1 5585   3.839   4.071   2.526
 1848SOL    HW2 5586   3.928   4.056   2.647
 1849SOL     OW 5587   3.770   4.035   1.879
 1849SOL    HW1 5588   3.686   4.037   1.831
 1849SOL    HW2 5589   3.812   4.115   1.842
 1850SOL     OW 5590   3.786   3.859   2.093
 1850SOL    HW1 5591   3.773   3.919   2.018
 1850SOL    HW2 5592   3.883   3.846   2.091
 1851SOL     OW 5593   4.018   4.287   2.400
 1851SOL    HW1 5594   3.925   4.312   2.387
 1851SOL    HW2 5595   4.009   4.197   2.436
 1852NaJ    NaJ 5596   1.443   0.903   1.158
 1853NaJ    NaJ 5597   1.753   0.196   1.675
 1854NaJ    NaJ 5598   1.458   4.211   0.751
 1855NaJ    NaJ 5599   3.754   0.383   1.396
 1856NaJ    NaJ 5600   3.767   1.822   0.424
 1857ClJ    ClJ 5601   0.402   0.460   0.063
 1858ClJ    ClJ 5602   1.023   3.347   1.332
 1859ClJ    ClJ 5603   4.869   3.769   2.870
 1860ClJ    ClJ 5604   2.347   4.165   2.706
 1861ClJ    ClJ 5605   4.019   1.977   2.075
   4.33090   4.33090   3.06241   0.00000   0.00000   0.00000   0.00000   2.16545   2.16545
