ligand in water
 5605
    1LIG      C    1   3.521   3.735   1.558 -0.0264  0.1207  0.0573
    1LIG     C1    2   3.437   3.607   1.541 -0.3655  0.3646 -0.1215
    1LIG      O    3   3.341   3.611   1.647 -0.2750  0.3020 -0.0368
    1LIG     C2    4   3.248   3.512   1.664 -0.4664  0.4728 -0.0647
    1LIG      N    5   3.267   3.399   1.595  0.1938  0.1305  0.6517
    1LIG     C3    6   3.176   3.301   1.603  0.2392  0.0795  0.5751
    1LIG     C4    7   3.065   3.308   1.689 -0.3534 -0.2396 -0.1519
    1LIG     C5    8   3.055   3.421   1.771 -0.4095 -0.2827 -0.0976
    1LIG     N1    9   2.946   3.436   1.856 -0.7467 -0.0630 -0.5596
    1LIG     C6   10   3.143   3.528   1.754 -0.6301 -0.1055 -0.1428
    1LIG     C7   11   3.132   3.647   1.834 -0.4248  0.2976 -0.7023
    1LIG     N2   12   3.131   3.745   1.896  0.0264  0.0277 -0.2509
    1LIG     N3   13   3.196   3.193   1.515  0.1044  0.0769  0.5468
    1LIG     C8   14   3.141   3.067   1.527 -0.1786  0.1630  0.1934
    1LIG     O1   15   3.062   3.030   1.612 -0.2128 -0.3337 -0.0501
    1LIG     C9   16   3.198   2.970   1.424  0.2539  0.3842  0.2243
    1LIG    C10   17   3.304   2.869   1.463 -0.2564 -0.2661 -0.0635
    1LIG    C11   18   3.298   2.794   1.581  0.4757  0.4125  0.4162
    1LIG     CL   19   3.168   2.819   1.695  0.0698 -0.0651  0.0641
    1LIG    C12   20   3.394   2.695   1.598 -0.0073 -0.1746 -0.2175
    1LIG    C13   21   3.499   2.669   1.508  0.4653  0.2886  0.1949
    1LIG    C14   22   3.508   2.752   1.396 -0.1969 -0.3338 -0.3265
    1LIG    C15   23   3.412   2.851   1.377 -0.0811 -0.1329  0.1296
    1LIG      H   24   3.598   3.730   1.479 -1.4338 -2.6676 -1.2682
    1LIG     H1   25   3.465   3.829   1.556 -0.5337 -0.1798 -0.1962
    1LIG     H2   26   3.571   3.733   1.655 -0.5087  0.7982  0.3237
    1LIG     H3   27   3.376   3.610   1.450 -0.6639 -3.4310 -0.2113
    1LIG     H4   28   3.501   3.518   1.540 -0.2563  0.3831  1.7908
    1LIG     H5   29   2.983   3.239   1.704 -0.7412  0.6694  2.2615
    1LIG     H6   30   2.924   3.528   1.891 -1.6591 -0.5462  0.2137
    1LIG     H7   31   2.863   3.390   1.821 -1.1277  1.9808 -2.5585
    1LIG     H8   32   3.255   3.211   1.434  1.2699  0.9789  1.5738
    1LIG     H9   33   3.106   2.917   1.398 -1.0896  2.9086 -0.5322
    1LIG    H10   34   3.227   3.026   1.334 -0.3822 -2.2622 -1.7505
    1LIG    H11   35   3.388   2.629   1.684 -0.2479 -2.0790 -1.6255
    1LIG    H12   36   3.565   2.585   1.524 -0.9288 -0.7501  0.7648
    1LIG    H13   37   3.589   2.742   1.324  0.3416  3.5157 -0.4625
    1LIG    H14   38   3.419   2.908   1.285 -0.3893 -2.2590 -1.2678
    1LIG    EP1   39   3.023   2.848   1.823 -0.3813 -0.5959 -0.3272
    1LIG    DCL   40   3.387   2.607   1.750  0.0148 -0.2739 -0.2743
    1LIG    HV6   41   2.913   3.347   1.892 -0.4141  0.3138  0.7541
    1LIG    HV7   42   2.934   3.513   1.921  0.3481 -1.4699  1.4499
    1LIG    HV8   43   3.269   3.220   1.450  1.5328  0.4145  2.2421
    1LIG   HV11   44   3.218   2.806   1.654  0.5315 -0.9952  0.7339
    1LIG   DEP1   45   3.379   2.510   1.918  0.0395 -0.3843 -0.3375
    2SOL     OW   46   4.192   0.670   0.247 -0.0405  0.6324 -0.5696
    2SOL    HW1   47   4.115   0.700   0.296 -0.7222 -1.4098 -0.2591
    2SOL    HW2   48   4.160   0.594   0.198  1.6985 -0.0426 -0.7226
    3SOL     OW   49   4.478   4.855   0.958 -0.3454 -0.0079 -0.0843
    3SOL    HW1   50   4.432   4.813   1.031 -1.1478 -0.6756 -0.9523
    3SOL    HW2   51   4.414   4.917   0.923  0.8380  2.0657  1.2212
    4SOL     OW   52   4.818   4.857   0.719 -0.1603  0.4601  0.0091
    4SOL    HW1   53   4.737   4.818   0.687  0.0877 -0.1254  0.0898
    4SOL    HW2   54   4.798   4.950   0.728 -0.5580  0.4625 -0.8117
    5SOL     OW   55   4.786   1.944   0.855 -0.4386  0.0742 -0.2967
    5SOL    HW1   56   4.724   1.909   0.919  2.2418 -2.7727  0.9767
    5SOL    HW2   57   4.773   1.890   0.776 -2.2997  2.2173 -1.5721
    6SOL     OW   58   1.620   1.751   0.554 -0.2536 -0.2229 -0.2548
    6SOL    HW1   59   1.582   1.804   0.483 -0.4828  1.0374  0.7692
    6SOL    HW2   60   1.552   1.688   0.577 -0.8691  0.5336  0.0382
    7SOL     OW   61   0.868   1.116   0.949 -0.2842  0.3042  0.3569
    7SOL    HW1   62   0.777   1.141   0.967 -0.2334 -0.3478  1.6308
    7SOL    HW2   63   0.865   1.076   0.862 -1.5194 -1.1047  0.9953
    8SOL     OW   64   2.027   0.484   0.227  0.2572  0.6116  0.1820
    8SOL    HW1   65   1.935   0.463   0.242  0.0796  0.1210 -1.4591
    8SOL    HW2   66   2.073   0.401   0.238  0.1483  0.2839 -1.6149
    9SOL     OW   67   4.638   1.692   1.108 -0.4464  0.0908 -0.2746
    9SOL    HW1   68   4.703   1.665   1.173  1.1650  0.3052 -1.7213
    9SOL    HW2   69   4.652   1.633   1.034 -2.0461  0.0386 -0.5707
   10SOL     OW   70   5.042   5.365   1.791  0.5818 -0.4563  0.1724
   10SOL    HW1   71   4.981   5.302   1.753 -1.0800  1.1825 -0.0253
   10SOL    HW2   72   5.111   5.375   1.726 -0.6566  0.0496 -1.1278
   11SOL     OW   73   5.031   1.148   1.205 -0.3691  0.3277 -0.2699
   11SOL    HW1   74   5.003   1.126   1.116 -2.9473  0.1875  0.4884
   11SOL    HW2   75   5.037   1.243   1.206  0.1111  0.3062 -0.6876
   12SOL     OW   76   5.475   5.429   1.570 -0.3976 -0.0925 -0.6681
   12SOL    HW1   77   5.567   5.403   1.576 -0.1835  0.6283 -0.7281
   12SOL    HW2   78   5.437   5.399   1.652 -0.2047 -0.7509 -0.8124
   13SOL     OW   79   4.654   1.238   1.741  0.0953 -0.2094 -0.6020
   13SOL    HW1   80   4.734   1.289   1.730 -0.2526  0.0876 -1.8697
   13SOL    HW2   81   4.659   1.170   1.674 -0.0546 -1.0843  0.2480
   14SOL     OW   82   1.365   1.509   1.228  0.1334  0.0024  1.0911
   14SOL    HW1   83   1.413   1.591   1.230 -1.1383  0.7759  0.6433
   14SOL    HW2   84   1.318   1.506   1.312  2.6528 -1.8404  2.5599
   15SOL     OW   85   4.787   4.350   1.258 -0.5458 -0.0868  0.1826
   15SOL    HW1   86   4.826   4.264   1.268 -0.5950 -0.1660 -0.2979
   15SOL    HW2   87   4.809   4.396   1.339  1.5784  0.2774 -0.5318
   16SOL     OW   88   1.974   0.611   0.547 -0.1560 -0.0292  0.1826
   16SOL    HW1   89   2.033   0.677   0.511 -1.3890  0.9220 -0.1623
   16SOL    HW2   90   1.896   0.615   0.492 -0.4311 -1.5184  0.4011
   17SOL     OW   91   4.380   1.716   0.392  0.1585  0.4412  0.4846
   17SOL    HW1   92   4.351   1.642   0.339  0.1736 -0.2514  1.4074
   17SOL    HW2   93   4.474   1.720   0.379 -0.1174  1.8726 -1.4928
   18SOL     OW   94   0.963   1.206   1.400 -0.6092 -0.0740  0.4157
   18SOL    HW1   95   1.038   1.171   1.448  0.7287  0.0463 -1.4858
   18SOL    HW2   96   0.931   1.132   1.349 -1.9214 -0.1600  1.3013
   19SOL     OW   97   4.189   1.536   0.629 -0.0372 -0.5119 -0.1959
   19SOL    HW1   98   4.253   1.596   0.668  1.0928 -3.0227  2.1073
   19SOL    HW2   99   4.112   1.592   0.611  1.0233  1.6705  1.5317
   20SOL     OW  100   4.250   1.307   1.353  0.0182 -0.3195 -0.2878
   20SOL    HW1  101   4.208   1.364   1.289  0.2524  0.5279  0.2954
   20SOL    HW2  102   4.343   1.318   1.338  0.0774  0.0383  0.3254
   21SOL     OW  103   4.924   1.810   1.752 -0.0555 -0.2625  0.4269
   21SOL    HW1  104   4.844   1.861   1.747  0.6136  0.6818 -1.1983
   21SOL    HW2  105   4.981   1.846   1.684  1.9922 -0.5136  1.9011
   22SOL     OW  106   0.761   1.057   0.697  0.1608 -0.0737 -0.1027
   22SOL    HW1  107   0.777   0.984   0.638  3.9660  0.5744 -0.1020
   22SOL    HW2  108   0.710   1.119   0.645 -0.8506 -1.5412 -0.9540
   23SOL     OW  109   1.450   4.536   1.465 -0.1111 -0.0385 -0.2746
   23SOL    HW1  110   1.359   4.508   1.455 -0.6619  1.3496  0.4300
   23SOL    HW2  111   1.499   4.485   1.402 -1.3312 -1.0780 -0.4134
   24SOL     OW  112   0.498   0.351   0.499  0.2468  0.0508  0.0382
   24SOL    HW1  113   0.482   0.423   0.438  0.9871  0.2059  0.0148
   24SOL    HW2  114   0.515   0.394   0.583  0.5027 -0.0992  0.0662
   25SOL     OW  115   1.639   2.157   0.390  0.0538 -0.0428  0.2730
   25SOL    HW1  116   1.677   2.211   0.320 -0.4451  0.2929  0.2567
   25SOL    HW2  117   1.628   2.218   0.463 -1.9198  0.2663 -0.2353
   26SOL     OW  118   6.309   3.504   3.067 -0.4485  0.0378  0.4048
   26SOL    HW1  119   6.397   3.482   3.039 -0.5900  1.2456 -1.1432
   26SOL    HW2  120   6.299   3.461   3.152  0.7576 -2.1054 -0.4512
   27SOL     OW  121   1.732   0.620   0.387 -0.0642  0.4652  0.1483
   27SOL    HW1  122   1.723   0.701   0.337  1.8691  0.4953 -0.2307
   27SOL    HW2  123   1.747   0.552   0.322  2.2994  0.4772  0.5904
   28SOL     OW  124   1.245   0.911   0.097 -0.0408 -0.0285 -0.1779
   28SOL    HW1  125   1.290   0.930   0.180  1.9221 -0.8148 -1.0010
   28SOL    HW2  126   1.153   0.932   0.115  0.7626  2.9859  1.1931
   29SOL     OW  127   4.724   5.082   1.578  0.3128  0.9572 -0.4206
   29SOL    HW1  128   4.632   5.087   1.601  0.5047  2.0546  0.1608
   29SOL    HW2  129   4.727   5.102   1.485 -0.1252 -0.1526 -0.6945
   30SOL     OW  130   0.837   1.588   0.770  0.1081  0.0188  0.1543
   30SOL    HW1  131   0.832   1.627   0.683  0.5516 -0.0028  0.1173
   30SOL    HW2  132   0.751   1.547   0.783 -0.1502  0.4912 -0.0463
   31SOL     OW  133   1.470   1.369   1.655  0.7166  0.1241  0.1431
   31SOL    HW1  134   1.423   1.336   1.732  1.2125  0.6518  0.6844
   31SOL    HW2  135   1.403   1.379   1.588  0.4767 -1.6298  0.0579
   32SOL     OW  136   1.195   4.498   0.563 -0.2346  0.0868 -0.3579
   32SOL    HW1  137   1.144   4.509   0.482  0.5513 -3.2312 -1.4848
   32SOL    HW2  138   1.129   4.481   0.630 -0.7996  0.1336 -0.8818
   33SOL     OW  139   4.702   4.909   1.083  0.1902  0.1595 -0.0008
   33SOL    HW1  140   4.626   4.879   1.032 -0.6852  0.3611  1.1391
   33SOL    HW2  141   4.727   4.832   1.134  0.2262  0.3286  0.2365
   34SOL     OW  142   3.507   2.846   3.050 -0.4079 -0.2559  0.3606
   34SOL    HW1  143   3.485   2.938   3.065  0.0112 -0.4642  2.4332
   34SOL    HW2  144   3.556   2.846   2.967  1.7585  1.7445  1.5408
   35SOL     OW  145   1.535   1.747   1.664  0.1509 -0.4055 -0.2311
   35SOL    HW1  146   1.608   1.775   1.720  1.2625  1.0931 -2.2819
   35SOL    HW2  147   1.575   1.690   1.599 -0.6194 -0.1238 -0.9723
   36SOL     OW  148   0.945   4.422   1.267 -0.2001  0.1991  0.6325
   36SOL    HW1  149   1.037   4.421   1.295  0.1909  1.4616 -0.4754
   36SOL    HW2  150   0.920   4.330   1.264  0.3597 -0.0936  2.9752
   37SOL     OW  151   1.427   1.364   0.685 -0.1114 -0.2346  0.1437
   37SOL    HW1  152   1.417   1.395   0.775  0.1319  1.0353 -0.2461
   37SOL    HW2  153   1.337   1.364   0.650 -0.1392 -0.1604  0.2138
   38SOL     OW  154   1.393   1.824   0.038 -0.2871 -0.5825 -0.3732
   38SOL    HW1  155   1.483   1.850   0.019  0.2153 -1.4001  0.7545
   38SOL    HW2  156   1.356   1.801  -0.047  0.4699  0.0260 -0.8884
   39SOL     OW  157   0.473   0.560   0.347  0.0601  0.0536  0.4986
   39SOL    HW1  158   0.498   0.639   0.396  0.2102  0.1055  0.3396
   39SOL    HW2  159   0.534   0.558   0.273 -0.3274  0.1107  0.1728
   40SOL     OW  160   1.464   4.332   0.532  0.0553 -0.1883  0.1737
   40SOL    HW1  161   1.389   4.374   0.491  0.4114 -0.5425 -0.8811
   40SOL    HW2  162   1.529   4.326   0.462 -0.1467 -2.9262  0.1247
   41SOL     OW  163   1.437   1.412   0.137 -0.4108  0.1897 -0.3658
   41SOL    HW1  164   1.434   1.355   0.214 -0.1466  1.2245  0.4249
   41SOL    HW2  165   1.345   1.429   0.116 -0.4795  1.0486  0.5927
   42SOL     OW  166   4.710   5.098   1.291 -0.0650 -0.5191  0.3414
   42SOL    HW1  167   4.727   5.014   1.248 -0.4941 -0.0276 -0.8289
   42SOL    HW2  168   4.652   5.144   1.231  0.3954  0.7356  0.8340
   43SOL     OW  169   1.573   5.099   1.606 -0.6317  0.2160  0.3410
   43SOL    HW1  170   1.581   5.088   1.700 -0.1453 -0.5963  0.2067
   43SOL    HW2  171   1.662   5.111   1.575 -0.5390 -1.7183 -0.2700
   44SOL     OW  172   5.157   5.058   1.658  0.0661 -0.4825  0.3045
   44SOL    HW1  173   5.069   5.059   1.693 -0.6653 -2.0414 -1.3146
   44SOL    HW2  174   5.173   5.148   1.628 -0.9340 -0.1714  0.6954
   45SOL     OW  175   1.051   4.532   1.036  0.0694  0.5703  0.2145
   45SOL    HW1  176   0.995   4.601   1.000  0.9338  0.4606 -1.4327
   45SOL    HW2  177   1.000   4.496   1.108 -2.2888  0.0771 -1.5618
   46SOL     OW  178   1.165   0.653   0.803 -0.2188  0.2978  0.5574
   46SOL    HW1  179   1.156   0.654   0.898 -0.8238  0.1141  0.5044
   46SOL    HW2  180   1.117   0.575   0.774  1.8119 -0.9243  0.2737
   47SOL     OW  181   4.230   5.014   0.994  0.3690 -0.3453  0.1842
   47SOL    HW1  182   4.208   5.077   1.063  2.3546 -0.2037  0.7366
   47SOL    HW2  183   4.250   4.933   1.041 -0.1758 -0.8190 -0.3828
   48SOL     OW  184   4.163   2.128   1.869 -0.3825 -0.0729  0.1511
   48SOL    HW1  185   4.125   2.141   1.956  0.7242 -0.7869  0.7668
   48SOL    HW2  186   4.103   2.067   1.826 -0.0626 -1.0579  1.0462
   49SOL     OW  187   0.876   0.492   0.447 -0.0435  0.5653  0.1180
   49SOL    HW1  188   0.819   0.433   0.397  0.2838 -0.3920  0.8416
   49SOL    HW2  189   0.950   0.509   0.388  0.3273 -0.5322  0.2287
   50SOL     OW  190   2.007   4.808   2.033  0.7323 -0.4144 -0.1948
   50SOL    HW1  191   1.931   4.750   2.045  0.6367  0.0712  2.0548
   50SOL    HW2  192   1.974   4.895   2.053  1.7419 -0.1072  0.1867
   51SOL     OW  193   1.318   0.912   0.383  0.0584 -0.7420 -0.1048
   51SOL    HW1  194   1.330   0.841   0.445  2.0315 -0.2074  0.2154
   51SOL    HW2  195   1.407   0.939   0.360 -0.5871 -0.6453 -2.8564
   52SOL     OW  196   0.706   4.395   0.509  0.0812  0.0853  0.6484
   52SOL    HW1  197   0.698   4.441   0.426 -2.7959 -1.2204  0.0613
   52SOL    HW2  198   0.632   4.426   0.561 -0.1574 -1.6034  1.3808
   53SOL     OW  199   0.940   1.328   0.398  0.0759  0.2196 -0.5407
   53SOL    HW1  200   0.899   1.414   0.407  1.5481  0.8754  0.4743
   53SOL    HW2  201   1.016   1.333   0.456  1.1171 -1.1903 -1.7210
   54SOL     OW  202   4.510   1.807   1.401  0.1972  0.2815  0.2092
   54SOL    HW1  203   4.474   1.737   1.347  1.1207 -0.0644  0.0184
   54SOL    HW2  204   4.553   1.763   1.474  0.4791  0.6653  0.2805
   55SOL     OW  205   1.818   0.960   0.825  0.0726  0.0313  0.5126
   55SOL    HW1  206   1.803   0.949   0.731  1.1022 -0.6989  0.4187
   55SOL    HW2  207   1.794   1.051   0.842 -1.0519 -0.0985 -0.2559
   56SOL     OW  208   1.237   1.496   1.496 -0.1870 -0.1593 -0.2542
   56SOL    HW1  209   1.191   1.469   1.576 -0.9044  0.4438 -0.4457
   56SOL    HW2  210   1.202   1.584   1.477  0.3181 -0.1040 -0.9691
   57SOL     OW  211   4.902   1.119   0.948  0.0679 -0.3453  0.4858
   57SOL    HW1  212   4.833   1.152   1.005  1.1164 -0.7526  2.0648
   57SOL    HW2  213   4.856   1.081   0.874 -1.4236 -0.7293  1.5585
   58SOL     OW  214   1.690   0.817   1.011 -0.5728  0.7250  0.1972
   58SOL    HW1  215   1.739   0.741   1.043 -0.8083  0.1923 -0.6505
   58SOL    HW2  216   1.753   0.867   0.960 -0.7012  0.4699 -0.2181
   59SOL     OW  217   4.045   1.119   1.354 -0.1624 -0.1237  0.6087
   59SOL    HW1  218   4.001   1.148   1.434  0.0956 -0.4083  0.8549
   59SOL    HW2  219   4.128   1.166   1.353 -0.7658  0.9749 -0.2311
   60SOL     OW  220   0.586   1.450  -0.023  0.0464 -0.1694 -0.7148
   60SOL    HW1  221   0.658   1.393  -0.048  0.1788  0.1643 -1.1007
   60SOL    HW2  222   0.507   1.399  -0.042  0.1771 -0.8798  0.5265
   61SOL     OW  223   4.514   4.370   1.218 -0.1044  0.2649  0.0261
   61SOL    HW1  224   4.517   4.397   1.127  0.5593  0.7560  0.1902
   61SOL    HW2  225   4.606   4.364   1.245 -0.1640 -2.2948 -0.0416
   62SOL     OW  226   3.576   3.293   3.067  0.1441 -0.0877  0.1272
   62SOL    HW1  227   3.526   3.212   3.059 -1.7737  1.0629 -0.1464
   62SOL    HW2  228   3.559   3.322   3.157 -0.5853  0.8335 -0.2858
   63SOL     OW  229   0.489   1.412   0.244  0.0947 -0.0264 -0.0985
   63SOL    HW1  230   0.565   1.353   0.238 -0.9760 -1.4062 -0.6757
   63SOL    HW2  231   0.497   1.468   0.167 -1.7783 -3.1416 -2.8086
   64SOL     OW  232   1.949   4.090   0.240 -0.4820 -0.6658  0.5104
   64SOL    HW1  233   1.992   4.102   0.155  2.6668 -1.7748  1.7817
   64SOL    HW2  234   1.999   4.019   0.282 -1.0277  0.7149  3.7921
   65SOL     OW  235   3.974   1.861   1.159  0.9965  0.1931  0.1302
   65SOL    HW1  236   3.943   1.826   1.242  0.0316 -0.1718 -0.3761
   65SOL    HW2  237   3.983   1.955   1.175 -3.5301  0.9545 -0.5544
   66SOL     OW  238   0.833   2.412   1.068 -0.2163  0.3247  0.4177
   66SOL    HW1  239   0.903   2.369   1.018  0.5324  0.3872  1.3868
   66SOL    HW2  240   0.758   2.353   1.058  0.0921  0.0268 -0.2615
   67SOL     OW  241   0.663   0.248   0.318 -0.4784  0.2751  0.3021
   67SOL    HW1  242   0.612   0.256   0.238 -1.6453 -0.6307  0.9236
   67SOL    HW2  243   0.603   0.275   0.388  0.8561  2.0852  0.8104
   68SOL     OW  244   1.475   4.851   1.622  0.3430  0.0309  0.1769
   68SOL    HW1  245   1.532   4.925   1.603 -0.3997  1.9318  4.2984
   68SOL    HW2  246   1.398   4.889   1.664 -1.2331 -2.9253  0.2776
   69SOL     OW  247   0.622   4.195   0.126  0.7738 -0.0139  0.2633
   69SOL    HW1  248   0.564   4.230   0.195  0.2041 -0.4696  0.0273
   69SOL    HW2  249   0.583   4.226   0.044  2.4085  1.9727  0.1677
   70SOL     OW  250   5.105   4.637   1.199 -0.7624 -0.6094 -0.0666
   70SOL    HW1  251   5.156   4.561   1.225 -1.3013 -0.4746  1.4916
   70SOL    HW2  252   5.143   4.709   1.249 -1.7095 -0.2898  0.2078
   71SOL     OW  253   0.964   1.629   1.240  1.0076 -0.3386  0.2641
   71SOL    HW1  254   0.914   1.583   1.172 -0.3448  0.8473  0.4179
   71SOL    HW2  255   0.920   1.604   1.321  0.7087  0.6345  0.4089
   72SOL     OW  256   1.314   4.689   1.176 -0.0534 -0.3068 -0.0430
   72SOL    HW1  257   1.409   4.688   1.171 -0.0506  0.7304 -0.3942
   72SOL    HW2  258   1.286   4.615   1.122  0.5122  0.2973 -1.1810
   73SOL     OW  259   1.083   1.614   0.862  0.4547 -0.4124 -0.3010
   73SOL    HW1  260   1.121   1.609   0.774  0.0923  0.9363 -0.5661
   73SOL    HW2  261   0.990   1.594   0.848  0.6536 -1.6459  0.0234
   74SOL     OW  262   1.017   4.764   0.686 -0.1902  0.7365 -0.5373
   74SOL    HW1  263   1.005   4.672   0.708  2.5631 -0.0913 -2.0609
   74SOL    HW2  264   0.959   4.778   0.610 -2.8682  1.1798  1.4518
   75SOL     OW  265   0.698   3.856   0.500 -0.1617  0.1370 -0.1240
   75SOL    HW1  266   0.680   3.950   0.502 -0.2609  0.1143  0.1142
   75SOL    HW2  267   0.612   3.815   0.496 -0.2359 -0.0031  2.0798
   76SOL     OW  268   1.089   0.934   0.808  0.1332  0.1226 -0.3101
   76SOL    HW1  269   1.055   0.955   0.721  2.5574  0.9612 -1.1328
   76SOL    HW2  270   1.121   0.844   0.800  1.5307  0.6334 -0.7178
   77SOL     OW  271   0.586   3.910   0.196  0.3923 -0.1208  0.3209
   77SOL    HW1  272   0.617   3.933   0.283 -2.0369  0.1152  1.1872
   77SOL    HW2  273   0.592   3.991   0.146 -3.1408  1.3127  1.8697
   78SOL     OW  274   1.260   4.325   0.264 -0.1199  0.0590 -0.0460
   78SOL    HW1  275   1.297   4.242   0.232  3.2584  0.4742  2.2664
   78SOL    HW2  276   1.207   4.299   0.339  1.5523 -0.0603  1.1541
   79SOL     OW  277   1.466   4.965   1.301 -0.1046  0.1883  0.2450
   79SOL    HW1  278   1.417   5.006   1.372 -0.8953 -0.1011 -0.1205
   79SOL    HW2  279   1.419   4.885   1.282  0.1613  0.2058 -0.5275
   80SOL     OW  280   0.829   1.578   0.414  0.4373 -0.3919  0.2423
   80SOL    HW1  281   0.837   1.584   0.318 -0.9224 -1.3918  0.0328
   80SOL    HW2  282   0.767   1.648   0.436 -1.5470 -1.9793 -0.0146
   81SOL     OW  283   0.619   1.422   0.856 -0.1291  0.3019  0.0430
   81SOL    HW1  284   0.561   1.371   0.911 -1.2248  1.5138  0.0636
   81SOL    HW2  285   0.629   1.370   0.776 -0.0740 -0.5649  0.6017
   82SOL     OW  286   0.764   1.921   0.601 -0.4688 -0.0561 -0.2314
   82SOL    HW1  287   0.673   1.891   0.597 -0.4609 -0.0518 -0.4502
   82SOL    HW2  288   0.805   1.885   0.523 -0.2538 -0.1455 -0.0787
   83SOL     OW  289   0.939   0.459   0.043  0.3171 -0.3112  0.4712
   83SOL    HW1  290   1.033   0.476   0.043 -0.0102  1.8193 -0.0697
   83SOL    HW2  291   0.931   0.364   0.052  2.4817 -0.4476  1.5181
   84SOL     OW  292   4.464   4.658   1.559 -0.0157 -0.5885  0.1486
   84SOL    HW1  293   4.552   4.674   1.527 -0.3942  1.1078 -0.1568
   84SOL    HW2  294   4.476   4.602   1.636  1.1859 -1.5548 -0.7000
   85SOL     OW  295   0.787   4.402   0.870 -0.0969 -0.1400 -0.0570
   85SOL    HW1  296   0.723   4.430   0.935  0.2528 -0.9268  0.6409
   85SOL    HW2  297   0.747   4.325   0.828  0.3550 -0.6017  0.3448
   86SOL     OW  298   0.993   4.499   0.296  0.4981 -0.2042  0.1996
   86SOL    HW1  299   0.901   4.507   0.271  1.0419  1.0927 -1.5791
   86SOL    HW2  300   1.029   4.435   0.235  0.8681 -0.4503  0.6687
   87SOL     OW  301   1.055   4.108   0.752 -0.1254 -0.7765  0.6687
   87SOL    HW1  302   1.012   4.034   0.710  0.9994 -1.3733  0.5444
   87SOL    HW2  303   1.148   4.086   0.751  0.2414  0.6567  0.5781
   88SOL     OW  304   1.529   1.088   0.483 -0.7691  0.2129  0.0404
   88SOL    HW1  305   1.609   1.040   0.501 -0.0219  1.1772 -0.5847
   88SOL    HW2  306   1.473   1.072   0.559  0.1544 -0.1747  0.6549
   89SOL     OW  307   1.175   4.910   1.081 -0.5941 -0.4559  0.4343
   89SOL    HW1  308   1.086   4.878   1.063 -0.0210 -0.9802 -1.7918
   89SOL    HW2  309   1.228   4.830   1.089 -0.2602 -0.1442  1.3969
   90SOL     OW  310   2.373   0.849   0.725  0.4036 -0.1724  0.7424
   90SOL    HW1  311   2.325   0.767   0.739  0.1594 -0.1349  0.1607
   90SOL    HW2  312   2.461   0.831   0.757  0.2299 -0.5159  1.0366
   91SOL     OW  313   0.352   1.070   0.441  0.0147  0.3158  0.1800
   91SOL    HW1  314   0.268   1.036   0.410  0.8624 -0.5559 -1.2792
   91SOL    HW2  315   0.376   1.136   0.376  0.4391  0.6015  0.6181
   92SOL     OW  316   1.682   1.322   0.611 -0.5693 -0.5068  0.1616
   92SOL    HW1  317   1.694   1.270   0.532  1.3399 -0.7766  0.5900
   92SOL    HW2  318   1.587   1.337   0.615 -0.7185 -0.4034 -2.1977
   93SOL     OW  319   1.118   0.591   0.332  0.1498 -0.1903 -0.6425
   93SOL    HW1  320   1.178   0.541   0.387  0.2140  1.3829  0.7579
   93SOL    HW2  321   1.129   0.553   0.244  1.4903 -1.4214  0.0228
   94SOL     OW  322   0.833   0.212   0.047  0.6498  0.2144 -0.0855
   94SOL    HW1  323   0.845   0.118   0.057  0.2488  0.2866  1.2191
   94SOL    HW2  324   0.738   0.225   0.054  0.8697  0.9694  2.5998
   95SOL     OW  325   1.729   1.769   1.327 -0.2963  0.0115  0.2012
   95SOL    HW1  326   1.824   1.752   1.330 -0.3379 -0.3684 -0.4660
   95SOL    HW2  327   1.692   1.704   1.387 -0.0727  0.6875  1.0883
   96SOL     OW  328   5.230   1.481   1.475  0.0395 -0.1330  0.4052
   96SOL    HW1  329   5.272   1.419   1.415  1.2169  0.5311  0.5049
   96SOL    HW2  330   5.269   1.462   1.560  0.2143  0.5659  0.4854
   97SOL     OW  331   1.645   1.538   1.486  0.3359  0.0012  0.8520
   97SOL    HW1  332   1.563   1.501   1.517 -0.3821  0.0746 -0.8520
   97SOL    HW2  333   1.674   1.479   1.417  0.0800  1.6163 -0.7043
   98SOL     OW  334   1.053   1.309   1.159 -0.1512  0.9934  0.1396
   98SOL    HW1  335   0.982   1.337   1.101  0.2872  2.4897  0.2965
   98SOL    HW2  336   1.008   1.265   1.232 -0.7142 -0.7548 -1.2085
   99SOL     OW  337   1.585   1.059   1.088  0.5655 -0.0272 -0.1628
   99SOL    HW1  338   1.598   1.126   1.021  0.7634 -0.5449 -0.6452
   99SOL    HW2  339   1.588   0.976   1.041 -1.4127 -0.3364  0.1437
  100SOL     OW  340   5.184   4.176   1.235  0.2183 -0.7000 -0.2982
  100SOL    HW1  341   5.130   4.098   1.227  1.5393 -1.8164  1.0496
  100SOL    HW2  342   5.205   4.200   1.145  0.8506 -2.6726 -0.7142
  101SOL     OW  343   5.395   4.906   1.652  0.3198  0.0003  0.5000
  101SOL    HW1  344   5.366   4.816   1.662  0.7001  0.0387  2.2161
  101SOL    HW2  345   5.314   4.956   1.640  0.1032 -0.5460 -0.3993
  102SOL     OW  346   1.089   1.281   0.826  0.5924 -0.4113  0.5055
  102SOL    HW1  347   1.138   1.298   0.906  1.1883 -2.1429  0.5476
  102SOL    HW2  348   1.022   1.217   0.853  1.0930 -1.3617 -0.4551
  103SOL     OW  349   4.686   5.370   1.490  0.0547  0.2584 -0.4434
  103SOL    HW1  350   4.623   5.299   1.480  0.5789 -0.1484 -0.9324
  103SOL    HW2  351   4.771   5.326   1.496  0.5801  0.8945 -2.4300
  104SOL     OW  352   1.302   4.414   1.044 -0.5740 -0.1682 -0.6191
  104SOL    HW1  353   1.320   4.345   1.107 -1.7766  0.2758  0.2418
  104SOL    HW2  354   1.209   4.433   1.054 -0.3402  1.3781 -1.0174
  105SOL     OW  355   4.358   1.570   1.711 -0.1268  0.3878  0.3385
  105SOL    HW1  356   4.275   1.541   1.671 -0.4834  1.1960  0.4702
  105SOL    HW2  357   4.355   1.665   1.704  0.2274  0.4855  1.4660
  106SOL     OW  358   4.685   1.071   0.727 -0.1461  0.4780  0.0093
  106SOL    HW1  359   4.597   1.035   0.739  0.9490 -2.0950  0.9696
  106SOL    HW2  360   4.695   1.078   0.632 -1.2142  0.4074 -0.1236
  107SOL     OW  361   0.951   4.509   0.683 -0.1254 -0.1463  0.3148
  107SOL    HW1  362   0.904   4.455   0.747  1.2086 -0.5584  0.9877
  107SOL    HW2  363   0.889   4.521   0.611 -0.5016 -2.5777  0.1553
  108SOL     OW  364   1.184   1.623   0.616  0.0023  0.0559 -0.2363
  108SOL    HW1  365   1.163   1.615   0.522  0.8283 -1.3047 -0.3375
  108SOL    HW2  366   1.243   1.697   0.621 -1.8251  1.6015 -0.4520
  109SOL     OW  367   1.340   1.536   0.923 -0.5420  0.7128  0.4043
  109SOL    HW1  368   1.254   1.557   0.885 -1.2477  0.6711  1.8852
  109SOL    HW2  369   1.327   1.547   1.018  1.6463  2.6803  0.5575
  110SOL     OW  370   1.756   0.402   0.168 -0.0917 -0.0512 -0.1018
  110SOL    HW1  371   1.751   0.319   0.121  0.5862 -0.8454  1.1501
  110SOL    HW2  372   1.740   0.469   0.102  0.1731 -1.1397 -1.3045
  111SOL     OW  373   4.660   1.665   1.602  0.4420 -0.6415 -0.2710
  111SOL    HW1  374   4.611   1.602   1.654 -0.5323  0.7447  0.5633
  111SOL    HW2  375   4.674   1.740   1.661  2.6685 -0.5372 -0.8085
  112SOL     OW  376   4.955   4.962   1.189 -0.3491  0.9377  0.0699
  112SOL    HW1  377   4.968   5.056   1.178  2.0786  0.6921  0.2607
  112SOL    HW2  378   4.896   4.937   1.118 -0.0845  2.4048 -0.7017
  113SOL     OW  379   1.827   5.045   1.553  0.1873  0.0043  0.4550
  113SOL    HW1  380   1.852   4.969   1.501  0.2519  0.0458  0.4243
  113SOL    HW2  381   1.872   5.033   1.636 -0.9386 -0.7190  0.9891
  114SOL     OW  382   1.037   4.099   1.493  0.1787 -0.4511 -0.1024
  114SOL    HW1  383   0.974   4.124   1.426  0.8343 -2.9644 -1.7825
  114SOL    HW2  384   0.992   4.118   1.576 -0.5759  2.9069 -1.1152
  115SOL     OW  385   4.864   4.066   1.257 -0.2230  0.1078 -0.0652
  115SOL    HW1  386   4.934   4.007   1.229  0.4414  0.5711  0.6017
  115SOL    HW2  387   4.839   4.035   1.344  0.9953  1.5376  0.8339
  116SOL     OW  388   4.897   1.400   1.160  0.5364 -0.0064  0.1801
  116SOL    HW1  389   4.852   1.458   1.221  0.6082 -1.8954  2.1562
  116SOL    HW2  390   4.832   1.333   1.138  1.1519 -0.5059 -0.1565
  117SOL     OW  391   1.158   1.023   1.054  0.4961 -0.5458 -0.1546
  117SOL    HW1  392   1.072   1.064   1.065  0.3534 -1.0968  0.9000
  117SOL    HW2  393   1.150   0.972   0.974 -0.3803 -1.0847  0.2537
  118SOL     OW  394   1.270   0.437   0.534 -0.4012 -0.3274 -0.0629
  118SOL    HW1  395   1.298   0.346   0.543  0.3986  0.0037  0.9083
  118SOL    HW2  396   1.193   0.445   0.590 -0.9413 -0.5822 -0.7454
  119SOL     OW  397   4.606   4.389   0.930  0.5825  0.4571  0.1476
  119SOL    HW1  398   4.676   4.454   0.923  1.3653  0.0936  3.1712
  119SOL    HW2  399   4.648   4.311   0.967 -1.3254  0.1972  1.9881
  120SOL     OW  400   4.390   1.636   1.223 -0.0556  0.4488  0.9162
  120SOL    HW1  401   4.312   1.599   1.182  0.4369  0.9244 -0.5080
  120SOL    HW2  402   4.458   1.628   1.156  1.9791 -2.6994  3.0933
  121SOL     OW  403   0.727   0.643   0.835  0.1038 -0.5234 -0.1488
  121SOL    HW1  404   0.640   0.607   0.815 -1.1322  2.3737 -0.5979
  121SOL    HW2  405   0.759   0.676   0.751  0.8877 -0.0717  0.3164
  122SOL     OW  406   1.380   5.319   1.655 -0.5548 -0.2780 -0.4105
  122SOL    HW1  407   1.395   5.258   1.727  0.1058 -1.5792 -1.5861
  122SOL    HW2  408   1.462   5.320   1.606 -0.9155  0.7182 -1.0424
  123SOL     OW  409   4.731   4.402   0.658 -0.2099 -0.1239  0.3294
  123SOL    HW1  410   4.735   4.477   0.716 -1.1301 -0.1478  0.4342
  123SOL    HW2  411   4.647   4.361   0.677 -0.4923 -0.1812 -0.9458
  124SOL     OW  412   1.996   4.718   0.714 -0.0741  0.0978 -0.0614
  124SOL    HW1  413   2.047   4.669   0.650 -1.9942  0.4682 -2.0043
  124SOL    HW2  414   1.986   4.805   0.675  0.5495  1.0720  1.8172
  125SOL     OW  415   1.133   5.121   1.264  0.2814  0.9175  0.2739
  125SOL    HW1  416   1.186   5.125   1.344  0.5304 -0.6184  0.2091
  125SOL    HW2  417   1.186   5.070   1.202 -1.6646 -1.6783  0.5704
  126SOL     OW  418   5.282   1.646   1.754  0.0228 -0.1022 -0.4867
  126SOL    HW1  419   5.284   1.694   1.671  0.0126 -0.6719 -0.8309
  126SOL    HW2  420   5.191   1.616   1.761 -0.1488  0.5535  0.0942
  127SOL     OW  421   2.101   1.953   1.772 -0.0764 -0.0449  0.3961
  127SOL    HW1  422   2.119   1.878   1.717 -0.3822  1.3466 -1.7029
  127SOL    HW2  423   2.038   1.921   1.837  0.1741 -1.6796 -0.1269
  128SOL     OW  424   4.925   1.283   1.762  0.0366  0.0230 -0.5594
  128SOL    HW1  425   4.990   1.285   1.692  1.1184 -0.4054  0.4044
  128SOL    HW2  426   4.954   1.212   1.819 -0.7463  0.4650  0.4019
  129SOL     OW  427   1.643   4.421   0.316  0.0446 -0.5493 -0.3482
  129SOL    HW1  428   1.689   4.498   0.348 -1.5243  0.6370 -0.8068
  129SOL    HW2  429   1.679   4.405   0.229 -0.4692  0.4481 -0.7628
  130SOL     OW  430   1.001   0.916   0.230 -0.3412  0.2579 -0.3086
  130SOL    HW1  431   1.057   0.866   0.289  0.8052  2.1592  0.3095
  130SOL    HW2  432   0.973   0.853   0.164  0.3956 -1.3476  0.8446
  131SOL     OW  433   1.422   1.015   0.696 -0.2609 -0.5143  0.1104
  131SOL    HW1  434   1.342   1.052   0.733 -1.2497 -1.7108 -0.7406
  131SOL    HW2  435   1.418   0.922   0.717 -0.6541 -1.1738 -2.5151
  132SOL     OW  436   4.462   0.868   0.801 -0.0577 -0.2524 -0.0580
  132SOL    HW1  437   4.452   0.814   0.723 -0.1170 -0.8695  0.3660
  132SOL    HW2  438   4.410   0.946   0.784  0.7281  0.0794 -1.0394
  133SOL     OW  439   4.564   0.842   1.063  0.3164 -0.1502 -0.0623
  133SOL    HW1  440   4.514   0.857   0.983 -0.5773  1.1634  0.7027
  133SOL    HW2  441   4.608   0.758   1.049  0.6633  0.3264 -2.1645
  134SOL     OW  442   1.259   4.681   1.653  0.1917 -0.1741  0.3651
  134SOL    HW1  443   1.274   4.612   1.717  0.5978  0.5786  1.1063
  134SOL    HW2  444   1.347   4.710   1.628  0.0781  1.9078  2.1119
  135SOL     OW  445   1.137   4.690   1.406  0.4127 -0.1072  0.2246
  135SOL    HW1  446   1.189   4.700   1.486  0.8290 -1.0632  0.0884
  135SOL    HW2  447   1.202   4.690   1.335  0.2144 -0.9828  0.0300
  136SOL     OW  448   4.447   0.720   0.140  0.5560  0.1764  0.4475
  136SOL    HW1  449   4.357   0.692   0.158  0.1009  1.2888 -0.0354
  136SOL    HW2  450   4.500   0.642   0.159 -0.6798 -1.1115 -1.1219
  137SOL     OW  451   4.412   1.737   0.657  0.0654 -0.5574 -0.1119
  137SOL    HW1  452   4.416   1.832   0.666  0.8196 -0.4829 -1.0813
  137SOL    HW2  453   4.401   1.721   0.564  1.2875 -1.4283 -0.1412
  138SOL     OW  454   4.810   1.925   1.356 -0.0209 -0.0919  0.1715
  138SOL    HW1  455   4.722   1.899   1.330 -0.1940  0.5520  0.1010
  138SOL    HW2  456   4.844   1.850   1.404 -0.1120 -0.8745 -0.9457
  139SOL     OW  457   0.912   0.953   1.281 -0.0659  0.4568 -0.0994
  139SOL    HW1  458   0.851   0.960   1.207  1.2615  0.5265 -1.2299
  139SOL    HW2  459   0.973   0.883   1.255 -1.2003 -1.5363  2.1751
  140SOL     OW  460   4.388   0.975   1.229  1.2111 -0.5448 -0.2321
  140SOL    HW1  461   4.444   0.931   1.164  1.6807  1.4269 -1.2421
  140SOL    HW2  462   4.343   1.044   1.179 -0.2638 -0.5110  1.0755
  141SOL     OW  463   4.901   5.115   1.780  0.1104 -0.2629  0.2979
  141SOL    HW1  464   4.847   5.102   1.702  1.2320 -2.5953 -0.1996
  141SOL    HW2  465   4.842   5.097   1.853 -0.3868 -0.3418 -0.1146
  142SOL     OW  466   1.801   1.178   1.199 -0.6813 -0.3743 -0.3816
  142SOL    HW1  467   1.724   1.124   1.179 -0.6961  0.0980 -1.7100
  142SOL    HW2  468   1.848   1.129   1.266 -0.9108 -1.8495 -1.2416
  143SOL     OW  469   0.570   0.811   0.473 -0.3939  0.0403  0.2650
  143SOL    HW1  470   0.630   0.862   0.419 -0.3788 -1.4051 -1.1537
  143SOL    HW2  471   0.503   0.873   0.500  0.8452  1.3111  0.5231
  144SOL     OW  472   1.415   0.827   1.060 -0.0905 -0.0601  0.4200
  144SOL    HW1  473   1.361   0.758   1.021  0.8588  0.1930 -1.4259
  144SOL    HW2  474   1.499   0.785   1.077  0.2779  0.4585 -0.0846
  145SOL     OW  475   3.999   1.945   1.761 -0.1217 -0.2039  0.2485
  145SOL    HW1  476   3.967   1.895   1.835 -0.8847 -0.0119  0.0634
  145SOL    HW2  477   4.074   1.896   1.728 -0.1018 -0.5619  0.8258
  146SOL     OW  478   0.926   4.837   1.014  0.2400  0.5987  0.1450
  146SOL    HW1  479   0.898   4.849   1.105  1.6571  0.0162  0.6740
  146SOL    HW2  480   0.845   4.816   0.968 -0.5743  1.3030  1.1861
  147SOL     OW  481   5.409   1.931   1.565  0.0033 -0.0548 -0.1658
  147SOL    HW1  482   5.442   1.870   1.499  0.6668  1.0670 -0.8890
  147SOL    HW2  483   5.486   1.955   1.616 -0.5898 -1.3747  1.4670
  148SOL     OW  484   4.686   1.206   1.101 -0.3187 -0.2422  0.0566
  148SOL    HW1  485   4.607   1.224   1.049 -0.8243 -4.0129 -0.7397
  148SOL    HW2  486   4.656   1.213   1.192 -1.9669 -2.5111 -0.2126
  149SOL     OW  487   1.302   1.239   1.280 -0.3517  0.0773  0.4900
  149SOL    HW1  488   1.212   1.251   1.248 -0.6924 -0.9441  0.9875
  149SOL    HW2  489   1.343   1.324   1.271 -0.8475  0.1522 -1.3733
  150SOL     OW  490   1.351   0.689   0.575 -0.1990  0.3213  0.1406
  150SOL    HW1  491   1.290   0.723   0.639 -0.4304 -0.8670  0.5708
  150SOL    HW2  492   1.314   0.605   0.548  0.1845  0.5319 -1.1362
  151SOL     OW  493   1.696   1.581   1.031  0.1509  0.2675 -0.4273
  151SOL    HW1  494   1.770   1.608   0.976  0.4090 -0.0966 -0.2705
  151SOL    HW2  495   1.621   1.579   0.971  0.3806  0.0996 -0.7147
  152SOL     OW  496   1.224   1.813   0.968 -0.8735 -0.5324  0.1350
  152SOL    HW1  497   1.232   1.824   0.873 -2.2955  0.5209  0.0970
  152SOL    HW2  498   1.170   1.735   0.978 -3.4649  1.1040 -0.0860
  153SOL     OW  499   4.366   1.618   0.918 -0.4472 -0.8493  0.0833
  153SOL    HW1  500   4.298   1.674   0.956  0.6260 -0.3006  1.2296
  153SOL    HW2  501   4.377   1.652   0.829  1.1408  1.7645  1.1497
  154SOL     OW  502   5.321   1.872   1.940 -0.3064  0.0900 -0.0821
  154SOL    HW1  503   5.314   1.811   1.867 -0.9514  0.6728 -0.5188
  154SOL    HW2  504   5.309   1.818   2.018 -1.0093 -0.3162 -0.4650
  155SOL     OW  505   1.212   0.469   0.083 -0.0527 -0.1632  0.9973
  155SOL    HW1  506   1.244   0.381   0.065  0.5188  0.4578 -1.2507
  155SOL    HW2  507   1.272   0.527   0.037 -2.0936  1.2444 -0.0408
  156SOL     OW  508   2.034   4.581   0.933  0.7862 -0.4556  0.1144
  156SOL    HW1  509   2.048   4.635   0.855  2.0008 -0.2021  0.4857
  156SOL    HW2  510   2.122   4.551   0.957  0.3557 -0.9915  1.0584
  157SOL     OW  511   1.182   1.614   0.328 -0.6289 -0.1625  0.3605
  157SOL    HW1  512   1.181   1.553   0.254 -0.2576  0.2895 -0.0217
  157SOL    HW2  513   1.172   1.700   0.288  0.1266  0.1332  0.7919
  158SOL     OW  514   4.044   1.547   1.951 -0.5403  0.2952  0.4354
  158SOL    HW1  515   4.080   1.636   1.955  0.7934 -0.1909 -0.0730
  158SOL    HW2  516   4.094   1.499   2.017 -1.1792 -0.1132  0.6270
  159SOL     OW  517   1.605   0.570   0.618  0.3649 -0.3269  0.1934
  159SOL    HW1  518   1.519   0.610   0.614  1.2025  1.5373 -0.0748
  159SOL    HW2  519   1.643   0.584   0.532  2.2301  2.0215  1.2977
  160SOL     OW  520   5.044   1.256   1.507 -0.5021 -0.5560  0.6152
  160SOL    HW1  521   5.071   1.338   1.467  0.2295 -0.7170  0.7744
  160SOL    HW2  522   5.117   1.196   1.491 -0.9057 -1.0947  0.7508
  161SOL     OW  523   0.176   1.378   0.128  0.4901 -0.5122 -0.3560
  161SOL    HW1  524   0.254   1.335   0.161  0.4360 -0.6350 -0.3882
  161SOL    HW2  525   0.141   1.318   0.062 -0.3111 -1.0354  0.5111
  162SOL     OW  526   1.435   1.799   1.206 -0.0835 -0.2761 -0.4105
  162SOL    HW1  527   1.379   1.830   1.135  0.6516 -0.4019 -1.0620
  162SOL    HW2  528   1.516   1.849   1.196  0.4052 -1.0276 -0.2975
  163SOL     OW  529   1.790   4.775   1.006  0.0043 -0.5542  0.0309
  163SOL    HW1  530   1.870   4.734   0.973  0.5038  0.8779 -0.6100
  163SOL    HW2  531   1.731   4.778   0.930 -0.1290 -0.3425  0.1419
  164SOL     OW  532   4.783   4.603   0.861  0.2505  0.3056  0.3581
  164SOL    HW1  533   4.799   4.694   0.837 -0.3952  0.4846  0.5979
  164SOL    HW2  534   4.859   4.580   0.915  0.1089  0.9031  0.8295
  165SOL     OW  535   3.168   3.328   2.909  0.4513  0.2037 -0.5618
  165SOL    HW1  536   3.223   3.393   2.952  0.0703 -0.7000  1.4110
  165SOL    HW2  537   3.227   3.257   2.886  0.7226  0.8490 -1.9638
  166SOL     OW  538   4.960   5.266   1.382 -0.1700 -0.4559 -0.3606
  166SOL    HW1  539   5.006   5.323   1.320 -0.3088  0.7407  0.6107
  166SOL    HW2  540   4.886   5.232   1.333  0.7568 -1.0355 -1.4203
  167SOL     OW  541   1.061   0.980   0.514 -0.3663  0.2713  0.0766
  167SOL    HW1  542   0.989   0.969   0.452  0.3122  1.8866 -1.0990
  167SOL    HW2  543   1.138   0.947   0.467  0.1237  1.3098  0.1141
  168SOL     OW  544   1.368   1.170   0.274  0.2542  0.0513  0.3127
  168SOL    HW1  545   1.301   1.113   0.311  0.8259  0.3526  1.8985
  168SOL    HW2  546   1.446   1.151   0.326  1.4005 -0.2470 -1.4571
  169SOL     OW  547   4.253   5.327   1.605  0.3695  0.7341 -0.2524
  169SOL    HW1  548   4.164   5.333   1.569 -0.5207  1.3221  1.9211
  169SOL    HW2  549   4.277   5.417   1.625  0.5680  0.3890  1.1574
  170SOL     OW  550   1.629   1.153   0.827 -0.4818  0.1195 -0.1603
  170SOL    HW1  551   1.582   1.092   0.770  0.1402  1.5039 -2.3093
  170SOL    HW2  552   1.648   1.228   0.770  1.3997  1.0189  1.5325
  171SOL     OW  553   1.156   1.268   0.582 -0.4171  0.1785  0.2651
  171SOL    HW1  554   1.124   1.279   0.671  0.1462  3.0397  0.2152
  171SOL    HW2  555   1.106   1.193   0.547  0.2733 -1.8566  3.3053
  172SOL     OW  556   0.710   4.121   0.436  0.1242 -0.0731  0.2535
  172SOL    HW1  557   0.694   4.211   0.467  2.8117  0.2274  1.0438
  172SOL    HW2  558   0.798   4.124   0.398  0.9241 -2.6545  1.6400
  173SOL     OW  559   4.696   1.561   0.873 -0.0835 -0.4497 -0.0354
  173SOL    HW1  560   4.788   1.542   0.856  0.1750 -0.8157  1.6017
  173SOL    HW2  561   4.648   1.513   0.805  0.8980 -0.5449 -0.6852
  174SOL     OW  562   1.701   4.815   1.424  0.4491 -0.1485  1.1675
  174SOL    HW1  563   1.624   4.832   1.369 -0.7382 -1.8716  2.1814
  174SOL    HW2  564   1.776   4.835   1.368 -0.6760 -2.1508 -1.2356
  175SOL     OW  565   4.545   1.392   0.419 -0.3036  0.0425 -0.1254
  175SOL    HW1  566   4.616   1.398   0.355 -0.9981  1.5783 -0.7957
  175SOL    HW2  567   4.502   1.309   0.400  0.1792 -0.0366 -0.9047
  176SOL     OW  568   4.537   1.208   1.354  0.2656  0.1366 -0.0921
  176SOL    HW1  569   4.604   1.174   1.413 -0.2991  0.4032  0.7219
  176SOL    HW2  570   4.487   1.131   1.326 -0.0576  0.1157  0.5350
  177SOL     OW  571   4.933   4.462   1.050  0.0031  0.3516  0.3753
  177SOL    HW1  572   4.968   4.533   1.104  1.6707  0.4895 -0.7973
  177SOL    HW2  573   4.873   4.415   1.107  0.6772  1.2806  1.9073
  178SOL     OW  574   2.289   2.362   2.992  0.4825  0.0182 -0.2350
  178SOL    HW1  575   2.376   2.380   3.028  0.6363  0.6791 -0.9017
  178SOL    HW2  576   2.259   2.284   3.039  2.1020 -1.2001 -1.1009
  179SOL     OW  577   1.472   5.247   1.370 -0.4550  0.0673  0.1434
  179SOL    HW1  578   1.420   5.209   1.441 -1.0838  1.0700  0.2290
  179SOL    HW2  579   1.561   5.216   1.387 -0.7468 -0.3868  0.8910
  180SOL     OW  580   4.432   0.360   0.205  0.2183 -0.3509 -0.3877
  180SOL    HW1  581   4.478   0.414   0.269  3.0368 -3.1092  0.1370
  180SOL    HW2  582   4.422   0.417   0.129  2.5185  1.1317  0.2976
  181SOL     OW  583   1.001   1.172   0.160 -0.0239 -0.4741  0.0201
  181SOL    HW1  584   0.980   1.219   0.240  0.5948  0.0026 -0.0882
  181SOL    HW2  585   0.998   1.079   0.184 -0.8211 -0.3769  0.3432
  182SOL     OW  586   5.220   4.838   1.327  0.3057  0.2614  0.5567
  182SOL    HW1  587   5.243   4.930   1.334  2.0165 -0.0739 -0.0259
  182SOL    HW2  588   5.287   4.793   1.379 -0.4166 -0.6722  0.7053
  183SOL     OW  589   1.319   1.857   0.675  0.4556  0.4925  0.3797
  183SOL    HW1  590   1.230   1.880   0.650  0.8654 -0.3430 -2.1339
  183SOL    HW2  591   1.368   1.940   0.667  0.0333  0.8546  1.3450
  184SOL     OW  592   4.726   4.547   1.499 -0.4686 -0.2861  0.1859
  184SOL    HW1  593   4.794   4.597   1.543 -0.7812 -0.5960  1.0378
  184SOL    HW2  594   4.712   4.470   1.555  0.5376 -1.7413 -1.4584
  185SOL     OW  595   5.408   1.362   1.681  0.2119 -0.3635  0.7369
  185SOL    HW1  596   5.414   1.284   1.627 -0.4418 -0.9800  1.5235
  185SOL    HW2  597   5.346   1.339   1.750 -0.2448  0.9687  0.8013
  186SOL     OW  598   4.324   1.851   1.738  0.4544 -0.1993 -0.1638
  186SOL    HW1  599   4.288   1.866   1.825  0.4058 -0.4564 -0.1394
  186SOL    HW2  600   4.362   1.935   1.713 -1.0811  0.3852 -0.6217
  187SOL     OW  601   1.324   0.212   0.085 -0.1040 -0.0451 -0.2636
  187SOL    HW1  602   1.259   0.163   0.136 -1.1582  1.2271 -0.3283
  187SOL    HW2  603   1.409   0.180   0.117 -0.7368 -2.1259 -0.5556
  188SOL     OW  604   0.835   0.719   0.584  0.3692  0.1537 -0.0173
  188SOL    HW1  605   0.855   0.642   0.531  2.1518  0.6913 -0.1815
  188SOL    HW2  606   0.752   0.752   0.548  0.7236 -0.4138 -1.4201
  189SOL     OW  607   1.605   5.458   1.587 -0.4921  0.4676  0.1755
  189SOL    HW1  608   1.673   5.479   1.523 -0.0195  3.0923  1.4081
  189SOL    HW2  609   1.571   5.543   1.615 -1.5053 -0.6170  2.5232
  190SOL     OW  610   0.709   1.249   0.287  0.3744 -0.0624  0.4000
  190SOL    HW1  611   0.781   1.282   0.340 -0.3630 -1.2592  2.2738
  190SOL    HW2  612   0.700   1.158   0.314 -1.6907 -0.0002  0.0732
  191SOL     OW  613   5.008   1.717   1.453 -0.1479  0.0618  0.1558
  191SOL    HW1  614   5.037   1.635   1.493 -0.7346  0.3448  1.1801
  191SOL    HW2  615   5.055   1.785   1.501  0.7226  0.3300 -1.0174
  192SOL     OW  616   0.792   1.539   1.071  0.2841 -0.0544 -0.1925
  192SOL    HW1  617   0.701   1.522   1.094  0.1372  0.9921  0.0646
  192SOL    HW2  618   0.797   1.521   0.977 -0.2415  0.1013 -0.2546
  193SOL     OW  619   0.722   0.950   0.258 -0.3019 -0.4520  0.1323
  193SOL    HW1  620   0.661   0.931   0.187  1.0102  2.6278 -2.0480
  193SOL    HW2  621   0.808   0.927   0.223  0.2358 -0.2619  1.2847
  194SOL     OW  622   1.937   1.439   0.789 -0.5385 -0.0105 -0.0091
  194SOL    HW1  623   1.952   1.399   0.874  0.7599 -0.3128 -0.3583
  194SOL    HW2  624   1.867   1.387   0.749 -2.3394  1.1244  1.4803
  195SOL     OW  625   4.296   5.509   1.980 -0.1797 -0.3105 -0.1089
  195SOL    HW1  626   4.339   5.534   1.898  1.0718 -1.3046  0.2171
  195SOL    HW2  627   4.268   5.593   2.018  0.8138  0.3139 -0.7038
  196SOL     OW  628   4.460   0.857   0.390 -0.3881  0.3391  0.1753
  196SOL    HW1  629   4.463   0.800   0.313  1.4960  0.9026 -0.2358
  196SOL    HW2  630   4.443   0.798   0.463 -1.3926 -0.3169 -0.5619
  197SOL     OW  631   4.367   1.231   1.688 -0.3984 -0.4432  0.3800
  197SOL    HW1  632   4.376   1.325   1.701 -0.2317 -0.6266  1.6833
  197SOL    HW2  633   4.455   1.200   1.669 -0.5911 -0.2233 -0.9652
  198SOL     OW  634   1.584   4.673   1.158 -0.3214  0.2685 -0.1078
  198SOL    HW1  635   1.590   4.586   1.197  1.4377  1.0499  1.5246
  198SOL    HW2  636   1.673   4.693   1.130 -0.4296  1.9982  0.6380
  199SOL     OW  637   0.696   0.545   0.172  0.4441 -0.6740 -0.4498
  199SOL    HW1  638   0.790   0.528   0.167  0.9053  1.0464  1.1452
  199SOL    HW2  639   0.656   0.478   0.117  2.7008 -0.4428 -2.5172
  200SOL     OW  640   1.522   1.717   0.836  0.0193 -0.2224 -0.4081
  200SOL    HW1  641   1.457   1.761   0.783 -0.8727  0.9856  1.5693
  200SOL    HW2  642   1.473   1.650   0.884  0.6253 -0.6868 -0.4210
  201SOL     OW  643   4.762   4.742   1.299  0.1579  0.2009  0.7206
  201SOL    HW1  644   4.739   4.677   1.365  0.6101 -0.3571  0.3322
  201SOL    HW2  645   4.854   4.762   1.315  0.6256 -0.8288 -0.4675
  202SOL     OW  646   4.696   1.751   0.648 -0.1694  0.3710 -0.7837
  202SOL    HW1  647   4.682   1.748   0.554 -0.0342  0.4113 -0.8053
  202SOL    HW2  648   4.612   1.725   0.686 -0.4152  0.9667 -0.9030
  203SOL     OW  649   1.411   4.489   0.772  0.1759 -0.4440  0.1939
  203SOL    HW1  650   1.363   4.462   0.851 -1.3580  1.5075 -0.0035
  203SOL    HW2  651   1.353   4.466   0.700  0.2339  0.4575 -0.1538
  204SOL     OW  652   1.208   4.072   1.098 -0.9869 -0.2607 -0.2822
  204SOL    HW1  653   1.122   4.109   1.080 -0.4436  0.5329 -1.3786
  204SOL    HW2  654   1.205   3.984   1.060 -1.2205 -0.1231 -0.5864
  205SOL     OW  655   4.490   1.402   0.698  0.0889 -0.1196 -0.0265
  205SOL    HW1  656   4.522   1.387   0.609 -0.2907 -0.4557 -0.1090
  205SOL    HW2  657   4.437   1.481   0.692  0.4145  0.1048 -0.0071
  206SOL     OW  658   4.789   1.594   1.324  0.1663  0.0275 -0.5013
  206SOL    HW1  659   4.741   1.577   1.404 -1.2101  3.0641 -0.5276
  206SOL    HW2  660   4.862   1.651   1.350  1.7929 -1.7306 -0.9766
  207SOL     OW  661   4.106   2.231   2.915 -0.2957  0.1301  0.3660
  207SOL    HW1  662   4.144   2.234   2.827 -1.0671  0.5198  0.0364
  207SOL    HW2  663   4.125   2.143   2.947 -1.5855 -0.6371 -0.9119
  208SOL     OW  664   5.086   0.826   1.060 -0.1612  0.1455 -0.5019
  208SOL    HW1  665   5.112   0.906   1.015  2.8453  0.6348  1.7846
  208SOL    HW2  666   5.117   0.755   1.003  0.4480  0.6750 -0.8387
  209SOL     OW  667   1.618   4.692   0.789 -0.1503 -0.4450  0.7974
  209SOL    HW1  668   1.603   4.768   0.733  1.2819  1.9920  3.4363
  209SOL    HW2  669   1.536   4.643   0.787 -1.2065  1.2807 -0.8109
  210SOL     OW  670   4.421   0.691   0.602  0.4468 -0.2703  0.4372
  210SOL    HW1  671   4.472   0.619   0.638  1.7298  0.8664  0.9652
  210SOL    HW2  672   4.333   0.678   0.637  0.2854 -2.3085 -0.5641
  211SOL     OW  673   0.709   1.341   0.607 -0.2141  0.4788 -0.2352
  211SOL    HW1  674   0.656   1.388   0.542  0.8981  0.1889 -1.4008
  211SOL    HW2  675   0.799   1.372   0.591  0.4012 -1.2788 -0.3659
  212SOL     OW  676   4.770   5.113   2.009 -0.8909 -0.5080 -0.0628
  212SOL    HW1  677   4.757   5.023   2.039 -2.0543 -1.5163 -3.2241
  212SOL    HW2  678   4.743   5.168   2.083 -2.3462 -2.7446  1.1428
  213SOL     OW  679   4.541   4.826   2.732  0.3322  0.1387  0.1516
  213SOL    HW1  680   4.525   4.916   2.704  0.6954  0.8305  2.0308
  213SOL    HW2  681   4.454   4.793   2.757  0.4122  0.5113  0.9427
  214SOL     OW  682   4.046   4.783   2.874  0.2828 -0.3134 -0.3269
  214SOL    HW1  683   3.990   4.711   2.902 -0.6737  0.7189  0.5254
  214SOL    HW2  684   4.018   4.802   2.784 -1.1166  0.4966  0.2447
  215SOL     OW  685   4.823   5.729   2.896 -0.0795 -0.0781 -0.5632
  215SOL    HW1  686   4.902   5.775   2.866  0.1318 -0.9454 -1.3604
  215SOL    HW2  687   4.832   5.727   2.991  0.8013 -0.0650 -0.6333
  216SOL     OW  688   5.863   5.420   2.235 -0.1746 -0.5641  0.5390
  216SOL    HW1  689   5.793   5.414   2.170  0.3462 -1.6701  0.0387
  216SOL    HW2  690   5.842   5.497   2.287 -2.5647 -1.6762  1.3559
  217SOL     OW  691   5.614   4.518   1.881 -0.2406 -0.0251  0.1597
  217SOL    HW1  692   5.667   4.517   1.961 -1.4563 -0.5946  0.9946
  217SOL    HW2  693   5.647   4.445   1.829  1.4332  1.1410 -0.4906
  218SOL     OW  694   2.070   4.658   1.659  0.1709 -0.2639 -0.8000
  218SOL    HW1  695   2.120   4.740   1.660  1.3034 -0.9069 -1.6590
  218SOL    HW2  696   2.119   4.599   1.717 -0.1492 -0.6011 -0.8628
  219SOL     OW  697   3.635   3.295   0.091 -0.0253  0.3310 -0.2329
  219SOL    HW1  698   3.716   3.282   0.042  0.7098  4.5279 -0.5083
  219SOL    HW2  699   3.571   3.238   0.047  1.8093 -0.0018 -2.6856
  220SOL     OW  700   5.096   5.388   2.666  0.0232  0.8016 -0.2705
  220SOL    HW1  701   5.136   5.345   2.742 -1.0665  0.8473  0.3421
  220SOL    HW2  702   5.060   5.317   2.614 -0.2976  0.8494 -0.1167
  221SOL     OW  703   4.614   5.257   2.817  0.2520  0.3729  0.1378
  221SOL    HW1  704   4.649   5.346   2.808  0.4129  0.3808  0.7572
  221SOL    HW2  705   4.645   5.229   2.903  0.6139 -0.4664 -0.2623
  222SOL     OW  706   3.841   3.698   0.039  0.3259 -0.5608  0.4543
  222SOL    HW1  707   3.843   3.649  -0.043 -2.1650 -1.0505  0.5801
  222SOL    HW2  708   3.902   3.653   0.097  0.6635 -1.3873 -0.5297
  223SOL     OW  709   5.753   4.704   2.239  0.1564 -0.2747  0.0193
  223SOL    HW1  710   5.712   4.788   2.259 -0.3942 -0.8394  1.4522
  223SOL    HW2  711   5.839   4.708   2.281  0.1699 -0.3825  0.0033
  224SOL     OW  712   4.615   1.902   2.015 -0.1509 -0.0715  0.5536
  224SOL    HW1  713   4.611   1.822   2.068 -2.5937 -0.5297 -0.1948
  224SOL    HW2  714   4.699   1.942   2.039  0.4678 -2.0759  2.0595
  225SOL     OW  715   4.774   5.894   2.331 -0.2695  0.3344  0.8818
  225SOL    HW1  716   4.782   5.828   2.261 -0.6635  0.1686  0.9891
  225SOL    HW2  717   4.729   5.967   2.289  0.6623  0.7671  0.6122
  226SOL     OW  718   4.544   5.459   2.602 -0.2563 -0.2128  0.4412
  226SOL    HW1  719   4.452   5.444   2.579 -0.3307  1.4448 -0.4237
  226SOL    HW2  720   4.591   5.384   2.564 -0.9338  0.2520 -1.3765
  227SOL     OW  721   3.036   3.731   0.427 -0.3641  0.1100  0.0408
  227SOL    HW1  722   2.980   3.781   0.366  2.1786  3.3322  0.0859
  227SOL    HW2  723   3.105   3.792   0.452  1.0855 -2.4497  2.9505
  228SOL     OW  724   5.024   5.493   2.049  0.1031  0.4797 -0.1319
  228SOL    HW1  725   4.993   5.418   1.998 -1.2309  0.4068  0.7320
  228SOL    HW2  726   5.042   5.457   2.136 -0.9806  1.2126  0.4233
  229SOL     OW  727   3.892   2.079   0.396 -0.2560 -0.0518 -0.1820
  229SOL    HW1  728   3.842   2.120   0.466  0.6545  3.4694 -1.4193
  229SOL    HW2  729   3.951   2.147   0.365  1.5684 -2.4238 -2.3361
  230SOL     OW  730   4.491   4.986   2.445 -0.3857 -0.5495  0.7016
  230SOL    HW1  731   4.413   4.998   2.499 -0.8480  0.2296 -0.1106
  230SOL    HW2  732   4.460   4.947   2.364  0.3624 -2.0880  1.1138
  231SOL     OW  733   1.901   1.921   2.512  0.1803  0.1028 -0.3069
  231SOL    HW1  734   1.958   1.946   2.440 -0.3624 -1.7657 -1.4522
  231SOL    HW2  735   1.857   1.842   2.482 -0.3008 -0.5780  1.9616
  232SOL     OW  736   3.972   5.994   2.450 -0.7251 -0.6516 -0.1919
  232SOL    HW1  737   3.896   6.006   2.394 -0.9625 -0.7516  0.1085
  232SOL    HW2  738   3.946   5.929   2.514 -0.9105  0.3869  0.8318
  233SOL     OW  739   1.910   5.164   2.361  0.0149  0.9867  0.3412
  233SOL    HW1  740   1.827   5.202   2.388  0.0237  1.2877 -0.0373
  233SOL    HW2  741   1.974   5.234   2.372  0.0768  1.0094 -0.1242
  234SOL     OW  742   1.946   5.076   2.078  0.1913  0.5275 -0.2840
  234SOL    HW1  743   1.931   5.165   2.046  0.7690  0.5634 -0.4644
  234SOL    HW2  744   1.900   5.073   2.162 -1.8824  0.2435 -1.3561
  235SOL     OW  745   4.950   5.579   2.517 -0.1926  0.3658 -0.1380
  235SOL    HW1  746   4.995   5.534   2.588 -2.0134 -0.7636  0.3769
  235SOL    HW2  747   4.918   5.660   2.556 -4.3974 -1.8294  1.6541
  236SOL     OW  748   3.763   2.970   0.327  0.3389 -0.4000  0.3458
  236SOL    HW1  749   3.714   2.943   0.250 -1.1181  0.8306  0.7991
  236SOL    HW2  750   3.716   3.046   0.361  0.5609 -1.2552  2.7992
  237SOL     OW  751   5.295   4.715   2.351  0.0283  0.2791 -0.3038
  237SOL    HW1  752   5.358   4.650   2.321 -0.1226 -0.0646  0.1144
  237SOL    HW2  753   5.230   4.665   2.399  0.0605  0.7709  0.2657
  238SOL     OW  754   2.111   3.166   0.028 -0.0804 -0.5790 -0.4823
  238SOL    HW1  755   2.158   3.233  -0.021  0.1364  0.2336  0.7712
  238SOL    HW2  756   2.019   3.186   0.014 -0.0331 -0.7775 -1.0991
  239SOL     OW  757   1.627   5.625   1.988  0.0949 -0.0182 -0.0694
  239SOL    HW1  758   1.563   5.685   2.026  0.0756 -0.8990  1.3953
  239SOL    HW2  759   1.633   5.553   2.052 -0.1620 -1.7772 -1.9220
  240SOL     OW  760   3.497   3.612   0.056 -0.1311 -0.0521  0.8232
  240SOL    HW1  761   3.573   3.565   0.022  0.8757  1.6820  0.5594
  240SOL    HW2  762   3.428   3.594  -0.008 -0.4489 -2.7695  1.7652
  241SOL     OW  763   6.259   6.188   2.764 -0.0527  0.1893  0.3256
  241SOL    HW1  764   6.277   6.237   2.684  4.2000 -2.6386 -0.8470
  241SOL    HW2  765   6.174   6.147   2.749 -0.2286  1.2305 -1.9158
  242SOL     OW  766   5.219   4.929   2.794 -0.0481  0.2669  0.0454
  242SOL    HW1  767   5.211   4.938   2.889 -1.9387  0.0015 -0.0549
  242SOL    HW2  768   5.147   4.982   2.759  0.1082 -0.3159 -1.2115
  243SOL     OW  769   5.631   4.704   2.593 -0.0675 -0.0962  0.0897
  243SOL    HW1  770   5.698   4.684   2.528 -1.1772 -1.0837 -0.8104
  243SOL    HW2  771   5.659   4.656   2.672  2.1839  2.4662  0.9905
  244SOL     OW  772   1.358   1.758   1.929  0.4562 -0.6705  0.3054
  244SOL    HW1  773   1.409   1.793   1.856 -1.2932 -0.0367 -0.6662
  244SOL    HW2  774   1.294   1.700   1.888  0.6631 -1.8202  1.5349
  245SOL     OW  775   2.943   3.112   0.238 -0.1048 -0.1586  0.2248
  245SOL    HW1  776   3.010   3.109   0.307  0.4088 -0.5569 -0.2749
  245SOL    HW2  777   2.892   3.032   0.251 -0.0831 -0.1727  0.2240
  246SOL     OW  778   3.176   2.741   0.349 -0.2055 -0.4930  0.5345
  246SOL    HW1  779   3.140   2.655   0.324  0.4335 -0.4658 -0.5405
  246SOL    HW2  780   3.108   2.779   0.405 -2.3880 -0.0433 -2.1663
  247SOL     OW  781   5.200   5.134   1.956 -0.5887  0.4664 -0.3552
  247SOL    HW1  782   5.184   5.052   2.002 -0.3020  0.4410 -0.3011
  247SOL    HW2  783   5.123   5.145   1.900 -0.1014 -0.4509 -1.2528
  248SOL     OW  784   4.312   5.288   2.554  0.3690 -0.6156 -0.1045
  248SOL    HW1  785   4.324   5.194   2.561 -0.2014 -0.6107  1.2818
  248SOL    HW2  786   4.271   5.302   2.469  0.0405 -1.6655 -0.1244
  249SOL     OW  787   5.471   4.746   2.002  0.5981 -0.5592 -0.3997
  249SOL    HW1  788   5.507   4.660   1.980 -0.1107 -0.7974 -0.6542
  249SOL    HW2  789   5.380   4.743   1.971  0.5507  0.2654 -0.3730
  250SOL     OW  790   5.647   5.350   2.069  0.1107  0.4516  0.1879
  250SOL    HW1  791   5.650   5.272   2.014 -2.2021  1.1704 -1.0974
  250SOL    HW2  792   5.554   5.368   2.080  0.5604  2.9900  0.4679
  251SOL     OW  793   2.978   2.726  -0.008 -0.1645  0.4576 -0.1127
  251SOL    HW1  794   2.908   2.791  -0.011  0.0011  0.9125  2.8258
  251SOL    HW2  795   2.938   2.650   0.034  0.3478 -0.4385 -1.1780
  252SOL     OW  796   5.357   5.564   2.727  0.0092 -0.2498  0.2955
  252SOL    HW1  797   5.290   5.496   2.719 -0.5585  0.3059  0.3401
  252SOL    HW2  798   5.350   5.594   2.817  0.6453 -0.5200  0.4410
  253SOL     OW  799   4.995   2.076   2.888 -0.0282 -0.3104  0.1323
  253SOL    HW1  800   4.947   2.062   2.806  0.2382 -1.9414  0.2191
  253SOL    HW2  801   4.951   2.020   2.952  0.4552  0.1005  0.8490
  254SOL     OW  802   2.069   4.825   2.529  0.1109 -0.4037 -0.1136
  254SOL    HW1  803   1.997   4.880   2.497  0.7509  1.0442  0.8281
  254SOL    HW2  804   2.127   4.816   2.453 -0.5388 -0.7178 -0.5834
  255SOL     OW  805   3.533   3.875   0.130  0.0274 -0.3451 -0.3573
  255SOL    HW1  806   3.556   3.925   0.052 -0.2764 -1.9132 -1.4794
  255SOL    HW2  807   3.534   3.784   0.102 -1.8477 -0.8427  1.0056
  256SOL     OW  808   4.433   5.282   2.033  0.2375  0.1142  0.0590
  256SOL    HW1  809   4.403   5.368   2.003 -0.8553 -0.8975 -1.9336
  256SOL    HW2  810   4.521   5.298   2.067  0.5659  1.8117 -1.4572
  257SOL     OW  811   1.830   4.910   2.429 -0.3846  0.5663 -0.2961
  257SOL    HW1  812   1.738   4.923   2.451 -0.5001 -0.2258 -0.2847
  257SOL    HW2  813   1.862   4.998   2.407 -1.2890  0.7662 -0.8596
  258SOL     OW  814   5.395   1.654   2.096  0.1166  0.0249 -0.1440
  258SOL    HW1  815   5.422   1.574   2.050  1.7837  0.8635 -0.7105
  258SOL    HW2  816   5.452   1.658   2.173 -2.4033 -1.1690  1.9164
  259SOL     OW  817   1.780   1.633   1.955  0.2355 -0.1695 -0.2412
  259SOL    HW1  818   1.685   1.644   1.961  0.3940  0.9052  0.7250
  259SOL    HW2  819   1.794   1.585   1.873 -1.0996  0.0396 -0.6115
  260SOL     OW  820   4.873   1.991   2.058  0.1341 -0.0632 -0.0322
  260SOL    HW1  821   4.909   1.904   2.078  0.4974  0.2138  0.5308
  260SOL    HW2  822   4.942   2.036   2.010  0.3341  0.2674  0.5547
  261SOL     OW  823   5.598   4.256   2.269  0.5649 -0.2870  0.3769
  261SOL    HW1  824   5.617   4.170   2.231  1.8994 -0.2057  0.8312
  261SOL    HW2  825   5.681   4.303   2.267  0.1718  0.5040  1.4114
  262SOL     OW  826   2.560   3.911   0.122  0.2126  0.4489 -0.1498
  262SOL    HW1  827   2.474   3.883   0.154  0.8849 -2.3345 -0.5144
  262SOL    HW2  828   2.540   3.974   0.053 -1.6090 -0.7460 -0.7955
  263SOL     OW  829   5.485   5.986   2.853 -0.0916  0.3443  0.0564
  263SOL    HW1  830   5.414   5.932   2.888  2.0852 -1.4800  1.9866
  263SOL    HW2  831   5.469   5.987   2.758 -2.4097 -0.3681  0.3694
  264SOL     OW  832   4.710   5.337   2.168  0.0391  0.0863  0.1521
  264SOL    HW1  833   4.729   5.396   2.242 -1.2431 -1.1810  1.5505
  264SOL    HW2  834   4.698   5.396   2.093  1.2875  1.4099  0.9370
  265SOL     OW  835   5.253   4.626   1.584  0.1057 -0.0354 -0.2064
  265SOL    HW1  836   5.294   4.544   1.611  0.4605  0.7227  1.7134
  265SOL    HW2  837   5.259   4.626   1.488  2.8491 -0.8597 -0.1156
  266SOL     OW  838   5.506   6.227   2.973  0.8252 -0.3117  0.4503
  266SOL    HW1  839   5.557   6.262   2.900 -0.0339 -1.8944 -0.9542
  266SOL    HW2  840   5.495   6.134   2.954  0.9966 -0.9069  2.8639
  267SOL     OW  841   3.647   2.660   0.238 -0.4585 -0.6206 -0.9654
  267SOL    HW1  842   3.705   2.674   0.313 -0.1372 -0.6205 -1.2083
  267SOL    HW2  843   3.699   2.689   0.162 -0.9745 -0.1167 -1.1346
  268SOL     OW  844   5.098   6.153   3.102 -0.6071 -0.4241  0.5945
  268SOL    HW1  845   5.177   6.207   3.105 -0.6932 -0.2144 -0.5037
  268SOL    HW2  846   5.036   6.197   3.160 -0.5414  0.4451  0.0126
  269SOL     OW  847   5.493   4.915   2.781 -0.0001 -0.0873  0.2445
  269SOL    HW1  848   5.410   4.873   2.760  0.1040  0.3771 -1.2820
  269SOL    HW2  849   5.550   4.893   2.707  0.0274  2.7500 -0.7025
  270SOL     OW  850   5.207   4.287   2.586  0.2254 -0.3979  1.4008
  270SOL    HW1  851   5.238   4.257   2.500 -0.4282  1.8482  0.3037
  270SOL    HW2  852   5.112   4.278   2.581  0.1379  0.4079  1.6192
  271SOL     OW  853   1.298   5.584   1.822 -0.2513  0.6793  0.2568
  271SOL    HW1  854   1.279   5.508   1.766 -0.2836  0.2654  0.8258
  271SOL    HW2  855   1.336   5.546   1.901  1.8843  1.4025 -0.3700
  272SOL     OW  856   4.968   4.657   1.641 -0.2372 -0.4617 -0.4343
  272SOL    HW1  857   4.971   4.729   1.578  0.0292  1.3302  1.5140
  272SOL    HW2  858   5.059   4.633   1.655 -0.2652 -0.5299 -0.3627
  273SOL     OW  859   5.452   4.902   2.223  0.0422  0.1805  0.0072
  273SOL    HW1  860   5.393   4.854   2.281  1.5840 -0.4231  1.1375
  273SOL    HW2  861   5.447   4.854   2.140 -1.4445  0.4685 -0.0879
  274SOL     OW  862   3.254   2.858   1.049 -0.2020 -0.0678  0.4042
  274SOL    HW1  863   3.285   2.949   1.047  0.1572 -0.1682 -2.1781
  274SOL    HW2  864   3.301   2.815   0.977 -1.5600 -1.8974  0.5314
  275SOL     OW  865   5.446   5.958   2.584  0.1790 -0.2591  0.2552
  275SOL    HW1  866   5.372   5.948   2.525  0.2943  1.1242 -0.1441
  275SOL    HW2  867   5.494   6.034   2.551  1.2035 -0.5052  1.1125
  276SOL     OW  868   4.731   5.533   2.376 -0.6134  0.7811 -0.2060
  276SOL    HW1  869   4.676   5.551   2.453 -0.7570 -0.1782 -0.0707
  276SOL    HW2  870   4.820   5.526   2.412 -0.7408 -0.1262 -0.0454
  277SOL     OW  871   5.620   2.299   2.716  0.0241  0.3476 -0.0165
  277SOL    HW1  872   5.701   2.333   2.755 -1.3702  1.8229  1.7675
  277SOL    HW2  873   5.559   2.372   2.718 -1.8573 -1.1456  0.1657
  278SOL     OW  874   4.958   4.872   1.477  0.3348 -0.2027 -0.3897
  278SOL    HW1  875   4.907   4.945   1.512 -0.1208 -0.7788  0.1939
  278SOL    HW2  876   4.992   4.903   1.394 -0.4628  0.4167 -0.4909
  279SOL     OW  877   4.320   4.930   3.017  0.4559  0.5344 -0.0831
  279SOL    HW1  878   4.229   4.931   2.986  0.4934 -0.5474 -0.2782
  279SOL    HW2  879   4.362   5.004   2.973  0.0437  0.1386 -1.1611
  280SOL     OW  880   4.961   5.022   2.785  0.3073 -0.2743 -0.1872
  280SOL    HW1  881   4.927   5.034   2.874 -1.0831  1.1388 -0.8657
  280SOL    HW2  882   4.908   4.951   2.749  0.9627 -0.9414  0.1155
  281SOL     OW  883   5.252   5.106   2.297 -0.1642 -0.2613 -0.1564
  281SOL    HW1  884   5.176   5.063   2.334 -0.1478  1.0223  1.4849
  281SOL    HW2  885   5.316   5.036   2.285 -0.9731 -1.0621  0.1013
  282SOL     OW  886   5.516   4.344   2.681 -0.4130 -0.5434  0.0632
  282SOL    HW1  887   5.429   4.370   2.709 -0.9748 -0.1739 -1.8953
  282SOL    HW2  888   5.507   4.253   2.653 -0.5346 -0.0828 -1.4790
  283SOL     OW  889   5.833   5.480   2.532  0.6022 -0.5544 -0.3939
  283SOL    HW1  890   5.918   5.435   2.533  1.0575  0.3007  0.2820
  283SOL    HW2  891   5.852   5.565   2.492  0.3129  0.1057  0.8564
  284SOL     OW  892   6.029   5.185   2.758 -0.1969  0.6088  0.4684
  284SOL    HW1  893   6.104   5.209   2.811  1.3471 -2.4583 -0.1069
  284SOL    HW2  894   5.968   5.142   2.819  0.2580 -0.2838  0.3111
  285SOL     OW  895   2.218   5.150   2.161  0.1517  0.7015  0.1369
  285SOL    HW1  896   2.267   5.142   2.243  0.7748 -0.3506 -0.3165
  285SOL    HW2  897   2.134   5.108   2.178 -0.0421  1.2283  0.4851
  286SOL     OW  898   5.038   1.567   1.797  0.2521 -0.4818  0.2673
  286SOL    HW1  899   4.995   1.652   1.797  0.3995 -0.3532 -1.7749
  286SOL    HW2  900   4.967   1.504   1.806 -0.2917 -0.2261 -1.7249
  287SOL     OW  901   1.807   5.514   2.213 -0.0826  0.0152 -0.0031
  287SOL    HW1  902   1.858   5.551   2.285 -1.5117  0.7638  0.6549
  287SOL    HW2  903   1.735   5.467   2.256  0.7910 -2.2684 -0.8648
  288SOL     OW  904   1.230   5.103   1.506  0.0535  0.1306  0.1615
  288SOL    HW1  905   1.235   5.172   1.572  0.3526 -0.6762  1.0040
  288SOL    HW2  906   1.175   5.036   1.546  0.0387 -0.2728 -0.5184
  289SOL     OW  907   5.173   4.781   1.909  0.4745  0.1084  0.0849
  289SOL    HW1  908   5.115   4.834   1.962  0.4349  0.0575  0.0930
  289SOL    HW2  909   5.173   4.824   1.823  2.5647  1.7306  0.8031
  290SOL     OW  910   3.272   3.889   0.409 -0.3429  0.1970  0.5029
  290SOL    HW1  911   3.297   3.850   0.325 -1.1406  1.2266 -0.2408
  290SOL    HW2  912   3.265   3.983   0.391  1.3837  0.7041  2.2161
  291SOL     OW  913   3.507   3.553   0.358  0.1433 -0.1048  0.2126
  291SOL    HW1  914   3.530   3.545   0.266  0.0902  1.4006  0.0455
  291SOL    HW2  915   3.413   3.571   0.358  0.5961  2.6450  0.3583
  292SOL     OW  916   5.801   5.379   2.816 -0.1002 -1.1355 -0.1983
  292SOL    HW1  917   5.800   5.416   2.727 -0.7635  0.5384  0.4546
  292SOL    HW2  918   5.893   5.361   2.833  0.3353  0.6001 -0.4626
  293SOL     OW  919   3.268   2.347   0.407  0.2699  0.5262  0.0032
  293SOL    HW1  920   3.284   2.441   0.409  0.9123  0.4551 -1.1293
  293SOL    HW2  921   3.245   2.328   0.316  0.4621 -0.4568  0.1433
  294SOL     OW  922   5.370   5.343   2.475  0.7941  0.1456  0.2856
  294SOL    HW1  923   5.465   5.331   2.483  0.9320 -0.5448 -1.9147
  294SOL    HW2  924   5.337   5.259   2.444 -0.5324  0.4512  0.7841
  295SOL     OW  925   2.499   3.048   0.018  0.5253 -0.7381  0.0649
  295SOL    HW1  926   2.422   3.016   0.064 -0.7577  1.3916 -0.5047
  295SOL    HW2  927   2.495   3.143   0.025  0.5154 -0.2597 -3.9050
  296SOL     OW  928   3.416   2.553   0.284 -0.7341  0.5938  0.3169
  296SOL    HW1  929   3.491   2.610   0.266 -0.9514  0.4151 -1.2671
  296SOL    HW2  930   3.340   2.604   0.256 -1.0015 -0.1230 -0.2918
  297SOL     OW  931   2.221   3.798   0.099 -0.0343 -0.3181  0.0706
  297SOL    HW1  932   2.163   3.722   0.098 -1.7509  0.9062  0.9482
  297SOL    HW2  933   2.206   3.838   0.185  1.1730  0.7710 -0.1919
  298SOL     OW  934   4.635   5.565   2.008  0.4132 -0.1684  0.2699
  298SOL    HW1  935   4.686   5.643   2.031  0.1893 -0.1271  0.6321
  298SOL    HW2  936   4.641   5.560   1.913 -1.1166  1.3868  0.0205
  299SOL     OW  937   4.883   5.047   3.039  0.1375 -0.2351  0.2795
  299SOL    HW1  938   4.851   4.962   3.071  0.8560  0.0715  1.9145
  299SOL    HW2  939   4.806   5.103   3.037 -0.3780 -0.9390 -0.9811
  300SOL     OW  940   5.573   5.911   2.293  0.7805 -0.6885 -0.5225
  300SOL    HW1  941   5.599   6.001   2.315 -0.7032  0.2347 -2.2997
  300SOL    HW2  942   5.529   5.879   2.372  0.3005  0.5829 -0.2427
  301SOL     OW  943   5.743   5.928   2.842 -0.6938  0.0637 -0.5620
  301SOL    HW1  944   5.751   5.846   2.892 -2.1566  0.3128  0.1237
  301SOL    HW2  945   5.651   5.951   2.849 -0.8171  0.4732 -2.8331
  302SOL     OW  946   1.677   5.070   1.875  0.1242 -0.2283 -0.3432
  302SOL    HW1  947   1.763   5.051   1.838  1.0721  1.5405  0.8015
  302SOL    HW2  948   1.694   5.089   1.967 -1.5425 -0.1276 -0.0275
  303SOL     OW  949   4.859   5.995   2.788 -0.3269  0.0798  0.5528
  303SOL    HW1  950   4.946   6.027   2.762  0.1130 -0.8074  0.8899
  303SOL    HW2  951   4.868   5.978   2.882 -1.4322  1.7571  1.0093
  304SOL     OW  952   5.620   5.323   2.582  0.2424  0.1263 -0.1643
  304SOL    HW1  953   5.693   5.382   2.562 -0.0837  0.2735 -0.9614
  304SOL    HW2  954   5.563   5.374   2.640  0.4166  0.2680 -0.1186
  305SOL     OW  955   5.883   4.958   2.491 -0.6436 -0.0730  0.0912
  305SOL    HW1  956   5.816   4.994   2.432 -0.7965 -1.2721 -0.5004
  305SOL    HW2  957   5.862   4.995   2.577 -1.8954 -0.1926 -0.1401
  306SOL     OW  958   5.349   4.367   1.682 -0.6912  0.8239 -0.4601
  306SOL    HW1  959   5.319   4.281   1.712  0.1580 -0.4040 -2.8651
  306SOL    HW2  960   5.445   4.360   1.682 -0.3923  3.0528  2.6358
  307SOL     OW  961   4.309   4.703   2.825 -0.4645 -0.1714 -0.0714
  307SOL    HW1  962   4.226   4.749   2.832 -0.2513  0.4169 -1.1887
  307SOL    HW2  963   4.317   4.655   2.908 -1.7801 -0.0337  0.1520
  308SOL     OW  964   2.519   3.320   0.203  0.1629  0.4483  0.0290
  308SOL    HW1  965   2.435   3.365   0.195  0.5827  1.0239 -1.4493
  308SOL    HW2  966   2.562   3.334   0.119  1.9814  0.6315  0.9457
  309SOL     OW  967   5.256   5.250   2.881 -0.5454 -0.2894 -0.1133
  309SOL    HW1  968   5.299   5.312   2.940 -0.1682 -0.1019 -0.5821
  309SOL    HW2  969   5.295   5.165   2.901  1.7360  0.1844 -2.0546
  310SOL     OW  970   4.825   4.418   2.383 -0.3408  0.1503  0.3120
  310SOL    HW1  971   4.752   4.424   2.321 -0.7820  0.2303  0.8274
  310SOL    HW2  972   4.900   4.392   2.330 -1.1440 -1.7743  0.0349
  311SOL     OW  973   1.781   4.663   2.021 -0.2749  0.1537 -0.5042
  311SOL    HW1  974   1.737   4.690   2.102  0.4257 -0.7536  0.2005
  311SOL    HW2  975   1.776   4.567   2.022  0.0199  0.1256 -1.3807
  312SOL     OW  976   5.540   5.033   3.027 -0.2442  0.2915 -0.0672
  312SOL    HW1  977   5.460   5.050   3.078 -0.1781  1.5830 -0.3581
  312SOL    HW2  978   5.509   4.981   2.952 -0.6524 -0.0003  0.2944
  313SOL     OW  979   1.508   4.522   2.052  0.0642 -0.2933 -0.2656
  313SOL    HW1  980   1.491   4.601   2.104  2.3297  1.0938 -1.4441
  313SOL    HW2  981   1.533   4.456   2.116 -0.0226  0.5086  0.6206
  314SOL     OW  982   5.605   4.914   1.856 -0.0976  0.0300 -0.5502
  314SOL    HW1  983   5.567   4.863   1.928 -0.3247 -0.3639 -0.9412
  314SOL    HW2  984   5.535   4.918   1.790  0.4651 -0.5349 -1.1955
  315SOL     OW  985   5.411   5.574   3.021  0.0619 -0.2085 -0.0505
  315SOL    HW1  986   5.329   5.608   3.057 -1.7739 -2.7531 -1.4246
  315SOL    HW2  987   5.431   5.498   3.076  1.4338  0.2727  0.1465
  316SOL     OW  988   4.134   5.072   2.839  0.4582 -0.2116 -0.6460
  316SOL    HW1  989   4.054   5.124   2.838 -0.8316 -2.1001 -1.3512
  316SOL    HW2  990   4.204   5.136   2.846 -1.1184  1.4789  0.6390
  317SOL     OW  991   4.379   5.163   2.895 -0.0462 -0.0730 -0.0943
  317SOL    HW1  992   4.363   5.230   2.962  0.6978  0.2275 -0.2149
  317SOL    HW2  993   4.457   5.193   2.848 -0.0790 -0.7004 -0.5659
  318SOL     OW  994   3.593   2.670   0.768 -0.1899 -0.0911 -0.8091
  318SOL    HW1  995   3.571   2.732   0.838  2.0976  3.0666 -2.6190
  318SOL    HW2  996   3.535   2.695   0.696  0.3095 -0.5332 -1.3653
  319SOL     OW  997   4.093   5.584   2.380 -0.8428  0.1011 -0.0884
  319SOL    HW1  998   4.161   5.638   2.420 -0.1722 -1.0207  0.3207
  319SOL    HW2  999   4.058   5.638   2.309  1.6225  0.1252 -1.4100
  320SOL     OW 1000   4.563   6.011   2.788 -0.2381  0.3368 -0.1497
  320SOL    HW1 1001   4.591   5.920   2.786 -0.8091 -0.0410  3.3047
  320SOL    HW2 1002   4.643   6.061   2.771  0.5433 -0.8137  0.0617
  321SOL     OW 1003   4.826   5.798   2.584  0.5591 -0.3473 -0.2953
  321SOL    HW1 1004   4.822   5.877   2.639 -1.3614 -1.1906  0.8566
  321SOL    HW2 1005   4.807   5.830   2.495  2.3602  0.8267 -0.3221
  322SOL     OW 1006   3.164   2.922   0.101 -0.3065  0.0864 -0.2563
  322SOL    HW1 1007   3.096   2.867   0.062  0.2360 -0.8048  0.0137
  322SOL    HW2 1008   3.187   2.878   0.183  0.3361  0.5718 -0.1626
  323SOL     OW 1009   4.687   5.155   2.462 -0.5080 -0.0758 -0.4211
  323SOL    HW1 1010   4.618   5.089   2.448  1.8518 -2.5308 -1.3930
  323SOL    HW2 1011   4.692   5.201   2.379 -1.0200  0.1884 -0.3126
  324SOL     OW 1012   5.030   4.985   2.385 -0.3225 -0.0401 -0.1656
  324SOL    HW1 1013   4.973   4.908   2.395 -1.5207  0.8789  0.2133
  324SOL    HW2 1014   4.992   5.051   2.442  0.1751  1.1441 -1.1621
  325SOL     OW 1015   6.016   4.702   2.748  0.4338  0.3908  0.3551
  325SOL    HW1 1016   6.003   4.667   2.836  0.4956  1.6341  0.8799
  325SOL    HW2 1017   6.108   4.729   2.746  0.1507  1.4114  0.3196
  326SOL     OW 1018   3.022   2.490   0.341 -0.4825 -0.1076  0.5568
  326SOL    HW1 1019   2.939   2.469   0.384  0.2076 -1.2910  1.4000
  326SOL    HW2 1020   3.018   2.444   0.257 -1.1398  0.8126  0.0635
  327SOL     OW 1021   3.162   4.129   0.079  0.0901  0.0831  0.3912
  327SOL    HW1 1022   3.228   4.088   0.023  0.1036  1.2961 -0.5416
  327SOL    HW2 1023   3.185   4.222   0.078 -0.5652  0.2858  1.5494
  328SOL     OW 1024   5.045   4.916   2.113  0.0408  0.4271  0.2324
  328SOL    HW1 1025   4.950   4.908   2.101  0.0991  0.9496 -0.6850
  328SOL    HW2 1026   5.056   4.935   2.206 -0.7346  0.1173  0.3985
  329SOL     OW 1027   2.379   3.830   0.461 -0.0255 -0.1156  0.1958
  329SOL    HW1 1028   2.352   3.791   0.544  1.1294 -1.1377  0.1322
  329SOL    HW2 1029   2.459   3.878   0.482 -1.1945  1.9097  0.1775
  330SOL     OW 1030   5.615   5.292   3.011  0.0115 -0.1116  0.4230
  330SOL    HW1 1031   5.620   5.197   3.014  0.9750 -0.0554  1.0172
  330SOL    HW2 1032   5.664   5.316   2.932  0.9820 -0.0523  1.0259
  331SOL     OW 1033   1.406   5.134   1.872 -0.1826  0.4672 -0.4014
  331SOL    HW1 1034   1.500   5.120   1.880  0.1446  2.5653 -0.0917
  331SOL    HW2 1035   1.369   5.046   1.877  1.7497 -0.4165 -0.6056
  332SOL     OW 1036   4.058   3.743   0.236 -0.1606  0.0577 -0.2895
  332SOL    HW1 1037   4.106   3.663   0.215 -0.2401  0.3666 -1.7137
  332SOL    HW2 1038   4.120   3.794   0.289 -0.2264 -1.0533  0.9208
  333SOL     OW 1039   5.793   1.930   2.562 -0.6236  0.1362  0.4327
  333SOL    HW1 1040   5.840   1.999   2.514  1.2388 -0.1965  1.6515
  333SOL    HW2 1041   5.862   1.869   2.589 -2.2550 -2.7386 -1.3021
  334SOL     OW 1042   4.340   5.923   2.643 -0.2650 -0.2369 -0.2017
  334SOL    HW1 1043   4.283   5.915   2.720 -1.1766 -3.5364 -1.0646
  334SOL    HW2 1044   4.426   5.946   2.678 -1.4257  2.0473  1.3876
  335SOL     OW 1045   5.872   4.324   2.244 -0.1461  0.4341 -0.5354
  335SOL    HW1 1046   5.950   4.271   2.258 -0.6466 -0.0089  0.7026
  335SOL    HW2 1047   5.858   4.369   2.327 -1.5748  0.0108 -0.5233
  336SOL     OW 1048   5.847   1.641   2.128  0.2994 -0.1980 -0.5739
  336SOL    HW1 1049   5.798   1.687   2.060 -0.4810 -0.9749 -0.5580
  336SOL    HW2 1050   5.806   1.554   2.133  1.2377 -0.6316 -0.0736
  337SOL     OW 1051   1.634   5.163   2.169  0.4084 -0.1588 -0.6877
  337SOL    HW1 1052   1.661   5.167   2.261 -1.6122 -1.3149  0.0123
  337SOL    HW2 1053   1.582   5.242   2.155 -1.7680 -1.3589  0.0954
  338SOL     OW 1054   4.930   5.949   3.043 -0.0194  0.4089  0.3479
  338SOL    HW1 1055   4.863   5.992   3.095 -0.5164  1.3686 -1.0369
  338SOL    HW2 1056   5.003   6.011   3.043 -0.1467  0.5680 -0.3451
  339SOL     OW 1057   4.869   5.710   2.094 -0.7729  0.1523 -0.6223
  339SOL    HW1 1058   4.938   5.775   2.079  0.1704  0.0403  2.5341
  339SOL    HW2 1059   4.915   5.627   2.100 -0.9647  0.1449  2.0815
  340SOL     OW 1060   3.646   3.625   0.604 -0.0077  0.5907  0.2324
  340SOL    HW1 1061   3.721   3.671   0.565  0.7891  0.2202  1.2860
  340SOL    HW2 1062   3.603   3.582   0.530 -0.5087  2.6115 -0.7244
  341SOL     OW 1063   5.962   4.590   2.499  0.4628 -0.0599 -0.5051
  341SOL    HW1 1064   5.904   4.516   2.517  0.9879 -0.0881  1.2954
  341SOL    HW2 1065   5.963   4.640   2.581  2.1893  0.4630 -0.7986
  342SOL     OW 1066   4.612   4.640   2.267 -0.2716 -0.1620 -0.6484
  342SOL    HW1 1067   4.517   4.635   2.266 -0.2665 -0.2162 -1.3139
  342SOL    HW2 1068   4.640   4.581   2.197  0.2249  0.3271 -0.8687
  343SOL     OW 1069   5.696   5.732   2.059  0.2444 -0.7468  0.2586
  343SOL    HW1 1070   5.642   5.719   2.137  0.9103 -2.8729  0.4253
  343SOL    HW2 1071   5.638   5.771   1.995 -1.3141 -2.2892  0.6673
  344SOL     OW 1072   5.052   5.388   3.035  0.2849  0.3925 -0.6651
  344SOL    HW1 1073   5.049   5.316   2.973  0.4158 -0.0564 -0.1646
  344SOL    HW2 1074   5.068   5.346   3.120 -0.5236  0.9290 -0.2299
  345SOL     OW 1075   5.379   5.374   2.142  0.4230  0.0578 -0.2364
  345SOL    HW1 1076   5.373   5.397   2.235  0.5119 -0.5280 -0.0783
  345SOL    HW2 1077   5.312   5.306   2.131  0.6213 -0.0887 -0.5323
  346SOL     OW 1078   5.509   1.521   1.877 -0.5798 -0.0599  0.4073
  346SOL    HW1 1079   5.524   1.439   1.831 -1.3802  0.4015 -0.7236
  346SOL    HW2 1080   5.437   1.562   1.830  0.9899  2.1528 -0.2477
  347SOL     OW 1081   2.742   3.491   0.570  0.3213 -0.3807 -0.4786
  347SOL    HW1 1082   2.750   3.403   0.535  0.5821 -0.1025 -1.1297
  347SOL    HW2 1083   2.655   3.493   0.610  1.6016 -2.0438  2.7180
  348SOL     OW 1084   3.697   3.264   0.344  0.1352  0.0955  0.4464
  348SOL    HW1 1085   3.666   3.282   0.255 -0.6010  0.4776  0.7727
  348SOL    HW2 1086   3.784   3.304   0.347 -0.6169  1.8344  0.4866
  349SOL     OW 1087   5.440   5.612   2.467 -0.9385 -0.4149  0.4282
  349SOL    HW1 1088   5.434   5.517   2.481  1.2964 -0.6651  0.0339
  349SOL    HW2 1089   5.406   5.650   2.548 -0.8892 -1.5821  1.0200
  350SOL     OW 1090   5.442   4.643   2.997 -0.4109 -0.0010  0.0060
  350SOL    HW1 1091   5.497   4.625   2.921 -0.8062  0.5387 -0.4141
  350SOL    HW2 1092   5.454   4.737   3.013  0.0979 -0.2068  0.9560
  351SOL     OW 1093   4.937   1.738   2.069  0.0364  0.2504  0.2789
  351SOL    HW1 1094   4.999   1.667   2.054  1.9046  1.6357  1.0590
  351SOL    HW2 1095   4.899   1.755   1.982  1.5297  0.0326 -0.4603
  352SOL     OW 1096   4.264   2.230   0.069  0.0838 -0.1530  0.2329
  352SOL    HW1 1097   4.281   2.155   0.125  2.9750 -0.8074 -1.3142
  352SOL    HW2 1098   4.292   2.306   0.121 -1.4338 -0.2437  1.2384
  353SOL     OW 1099   4.433   1.604   1.971  0.0040 -0.2486  0.2628
  353SOL    HW1 1100   4.518   1.647   1.966 -1.5856  3.2329  0.4676
  353SOL    HW2 1101   4.415   1.573   1.882  1.5083 -1.2473  0.2734
  354SOL     OW 1102   2.849   2.465   0.127  0.2482  0.0093  0.5253
  354SOL    HW1 1103   2.772   2.434   0.081  0.7638 -0.1134 -0.2807
  354SOL    HW2 1104   2.815   2.517   0.200 -0.6139  1.7167 -1.0075
  355SOL     OW 1105   4.558   4.727   1.824 -0.5843 -0.0320 -0.0910
  355SOL    HW1 1106   4.491   4.667   1.856 -0.8761 -0.3589 -1.2441
  355SOL    HW2 1107   4.536   4.811   1.862 -1.9840 -0.0226 -0.8683
  356SOL     OW 1108   3.626   2.931   0.102  0.0008 -0.1440  0.4026
  356SOL    HW1 1109   3.544   2.882   0.099 -0.6257  0.9132 -0.9611
  356SOL    HW2 1110   3.686   2.880   0.048 -0.1478 -0.2742  0.3598
  357SOL     OW 1111   4.823   4.638   1.887  0.4291  0.7601 -0.3756
  357SOL    HW1 1112   4.739   4.665   1.851 -0.7851 -1.5045  0.5506
  357SOL    HW2 1113   4.882   4.638   1.812  0.3478  4.7024 -0.6328
  358SOL     OW 1114   5.259   5.667   2.228 -0.0152  0.0975  0.0566
  358SOL    HW1 1115   5.194   5.599   2.242 -0.8989  1.0406  0.7234
  358SOL    HW2 1116   5.310   5.670   2.310  1.0365 -0.7840 -0.5412
  359SOL     OW 1117   4.765   5.475   2.997 -0.0556  0.2257 -0.0321
  359SOL    HW1 1118   4.813   5.548   2.959  0.7305  0.4777  1.3993
  359SOL    HW2 1119   4.824   5.400   2.989  0.8978  0.6628  2.2726
  360SOL     OW 1120   5.907   6.137   2.981  0.0112 -0.3717  0.0708
  360SOL    HW1 1121   5.950   6.065   3.028  2.3082  0.3816 -0.7452
  360SOL    HW2 1122   5.846   6.093   2.922 -1.2316 -1.4364  2.0500
  361SOL     OW 1123   5.906   4.919   3.012  0.6627 -0.0673  0.1076
  361SOL    HW1 1124   5.974   4.856   2.988  0.9493  0.0093  0.7013
  361SOL    HW2 1125   5.858   4.935   2.931  0.0411 -1.6897  0.1085
  362SOL     OW 1126   5.485   4.535   2.320 -0.2416  0.0314 -0.4830
  362SOL    HW1 1127   5.517   4.448   2.293 -0.8185 -0.3901  0.1540
  362SOL    HW2 1128   5.555   4.595   2.295  1.0195 -0.8419  0.7405
  363SOL     OW 1129   4.940   5.195   2.559  0.3033 -0.4879 -0.6027
  363SOL    HW1 1130   4.905   5.182   2.647 -0.2455  0.3828 -0.6835
  363SOL    HW2 1131   4.865   5.183   2.501  0.0190  1.6384 -0.7620
  364SOL     OW 1132   3.839   2.560   0.461 -0.4083  0.1919  0.4675
  364SOL    HW1 1133   3.906   2.624   0.436  0.2100 -0.7952 -0.4638
  364SOL    HW2 1134   3.844   2.555   0.556  1.6619 -0.7359  0.3463
  365SOL     OW 1135   5.267   5.604   1.907 -0.3574 -0.0912  0.4186
  365SOL    HW1 1136   5.185   5.564   1.936  0.2054 -2.1306 -0.6660
  365SOL    HW2 1137   5.315   5.622   1.988 -1.7954  1.0902  1.0710
  366SOL     OW 1138   5.239   5.895   2.913 -0.0638  0.5965  0.3593
  366SOL    HW1 1139   5.197   5.881   2.828  0.3723 -0.9711  0.3577
  366SOL    HW2 1140   5.205   5.824   2.968 -1.0583  2.1316  1.8130
  367SOL     OW 1141   5.725   5.069   2.749  0.5923  0.6886 -0.3830
  367SOL    HW1 1142   5.643   5.023   2.765  1.3505 -0.6981 -0.2790
  367SOL    HW2 1143   5.700   5.149   2.702 -0.8351  0.4872  0.0110
  368SOL     OW 1144   5.393   5.296   1.823  0.2664 -0.0386 -0.4748
  368SOL    HW1 1145   5.353   5.216   1.857  2.5102 -0.8830  0.3084
  368SOL    HW2 1146   5.353   5.367   1.875  0.6419 -0.9519  1.1250
  369SOL     OW 1147   5.710   5.900   2.573 -0.1944  0.0219 -0.2131
  369SOL    HW1 1148   5.620   5.869   2.577  0.1178 -0.7944  1.4250
  369SOL    HW2 1149   5.739   5.902   2.665  1.3369  0.6123 -0.6716
  370SOL     OW 1150   4.511   5.635   2.249 -0.0666 -0.5140 -0.5243
  370SOL    HW1 1151   4.587   5.611   2.303  0.4880  0.8980 -0.6187
  370SOL    HW2 1152   4.515   5.577   2.174  1.6216  0.2815 -1.0959
  371SOL     OW 1153   3.974   2.214   0.044  0.0337 -0.5731 -0.1474
  371SOL    HW1 1154   3.994   2.128   0.007  2.1018 -0.2826  0.1675
  371SOL    HW2 1155   4.060   2.257   0.052 -0.7464  0.7704  1.5425
  372SOL     OW 1156   4.772   4.808   2.437 -0.0507 -0.3429 -0.3959
  372SOL    HW1 1157   4.702   4.867   2.411  1.0058  1.5713  0.8204
  372SOL    HW2 1158   4.743   4.722   2.410 -2.6791  0.4359 -0.3004
  373SOL     OW 1159   5.875   5.709   2.385  0.2363  0.1850 -0.0247
  373SOL    HW1 1160   5.802   5.769   2.369  0.4120  0.1257 -1.1359
  373SOL    HW2 1161   5.949   5.765   2.405  0.1573  0.2957 -0.0429
  374SOL     OW 1162   2.803   2.860   0.288  0.5674 -0.6504  0.5282
  374SOL    HW1 1163   2.743   2.892   0.355  0.3252  0.6183 -0.2522
  374SOL    HW2 1164   2.746   2.813   0.226  0.6724 -1.1208  0.7845
  375SOL     OW 1165   4.996   6.019   2.457  0.2448  0.4863 -0.2818
  375SOL    HW1 1166   4.981   6.112   2.440 -1.5091  0.6087  1.5198
  375SOL    HW2 1167   4.934   5.974   2.400  0.1891  0.4747 -0.2110
  376SOL     OW 1168   5.916   4.523   2.969 -0.3890  0.0501  0.2826
  376SOL    HW1 1169   5.859   4.514   3.046 -0.1983 -0.6149  0.3453
  376SOL    HW2 1170   5.985   4.459   2.983  0.2487  0.6867  0.0817
  377SOL     OW 1171   3.201   2.283   0.118  0.4177  0.1241 -0.0668
  377SOL    HW1 1172   3.196   2.341   0.042 -1.2552 -0.4402 -0.4326
  377SOL    HW2 1173   3.177   2.197   0.085 -2.1795  0.1901  1.3758
  378SOL     OW 1174   5.136   5.449   2.358 -0.2393  0.1054  0.0036
  378SOL    HW1 1175   5.206   5.407   2.409  0.6771  0.6623 -0.7552
  378SOL    HW2 1176   5.072   5.477   2.423 -0.7093 -2.1028  0.5682
  379SOL     OW 1177   4.834   2.047   2.672 -0.4423 -0.0283  0.4926
  379SOL    HW1 1178   4.865   1.997   2.597 -2.1648 -1.6386  0.7868
  379SOL    HW2 1179   4.753   2.088   2.642 -0.7223 -0.0167  1.2250
  380SOL     OW 1180   1.304   4.112   1.797  0.1774 -0.5058 -0.2576
  380SOL    HW1 1181   1.255   4.034   1.774  1.5164 -0.7567 -2.6097
  380SOL    HW2 1182   1.384   4.078   1.838 -0.2655 -0.2252  0.8825
  381SOL     OW 1183   5.713   4.989   2.298  0.1148 -0.4152  0.0718
  381SOL    HW1 1184   5.743   5.062   2.244  0.3614  2.5168  3.7123
  381SOL    HW2 1185   5.619   4.984   2.282  0.2184  0.2462 -0.7806
  382SOL     OW 1186   5.763   4.386   2.524  0.1908 -0.1531 -0.4446
  382SOL    HW1 1187   5.813   4.312   2.558 -0.8538 -0.2083  1.0252
  382SOL    HW2 1188   5.677   4.377   2.563 -0.2703  1.2639 -1.0824
  383SOL     OW 1189   4.221   5.353   2.312 -0.6564 -0.0485 -0.7773
  383SOL    HW1 1190   4.276   5.409   2.257 -0.2290  1.6647  1.2869
  383SOL    HW2 1191   4.138   5.401   2.320 -1.3240 -1.0842 -1.2310
  384SOL     OW 1192   5.129   1.512   2.088  0.3340 -0.2791  0.6696
  384SOL    HW1 1193   5.160   1.452   2.155  1.4556 -1.6732 -1.0065
  384SOL    HW2 1194   5.206   1.562   2.063 -0.1298  0.4047  0.5854
  385SOL     OW 1195   0.157   2.420   0.203  0.0371  0.0293  0.2247
  385SOL    HW1 1196   0.216   2.348   0.181  0.5322  0.6030 -0.3592
  385SOL    HW2 1197   0.211   2.499   0.194 -0.6479  0.5151  0.2987
  386SOL     OW 1198   4.526   1.884   0.947 -0.3614 -0.1854  0.3660
  386SOL    HW1 1199   4.465   1.935   1.001 -2.4190 -0.8689 -1.1949
  386SOL    HW2 1200   4.546   1.807   1.001 -1.1501 -0.1157  0.7782
  387SOL     OW 1201   4.229   1.921   0.434  0.3538 -0.1852 -0.5591
  387SOL    HW1 1202   4.151   1.897   0.385  0.0267  1.4181 -0.8676
  387SOL    HW2 1203   4.293   1.852   0.412 -0.3135 -0.4130 -1.9078
  388SOL     OW 1204   4.277   2.811   1.135  0.4223  0.1176  0.5080
  388SOL    HW1 1205   4.372   2.801   1.131  0.4608  0.7202 -0.6355
  388SOL    HW2 1206   4.265   2.897   1.177  0.3863  0.0317  0.6714
  389SOL     OW 1207   1.882   3.372   0.765 -0.6766  0.3628 -0.4974
  389SOL    HW1 1208   1.947   3.349   0.698 -2.3388  0.6056 -2.2934
  389SOL    HW2 1209   1.932   3.379   0.846  1.3548 -0.4428 -1.6140
  390SOL     OW 1210   0.861   2.947   0.456 -0.4208 -0.0987 -0.9311
  390SOL    HW1 1211   0.949   2.969   0.426 -0.7767  0.4318 -1.5982
  390SOL    HW2 1212   0.848   3.003   0.533 -0.3197  0.1069 -1.0615
  391SOL     OW 1213   1.395   2.189   0.078  0.1269 -0.5840 -0.0305
  391SOL    HW1 1214   1.323   2.194   0.016 -0.1455 -0.6785  0.2773
  391SOL    HW2 1215   1.471   2.167   0.024 -0.3720 -2.1750 -0.1573
  392SOL     OW 1216   5.094   3.042   1.336  0.2960  0.7989  0.4047
  392SOL    HW1 1217   5.029   3.017   1.270  0.2480 -1.0106  1.0759
  392SOL    HW2 1218   5.055   3.017   1.419  2.1289 -1.1298  0.7784
  393SOL     OW 1219   5.126   2.842   1.822  0.1785 -0.1840 -0.3984
  393SOL    HW1 1220   5.092   2.802   1.902 -0.5764 -1.3361 -1.2608
  393SOL    HW2 1221   5.203   2.790   1.800  1.9435  1.7088  0.9175
  394SOL     OW 1222   0.649   2.579   0.601 -0.7394 -0.1142 -0.4264
  394SOL    HW1 1223   0.588   2.653   0.603 -2.0970 -1.1300 -1.7234
  394SOL    HW2 1224   0.619   2.522   0.671 -1.0275 -0.4183 -0.7944
  395SOL     OW 1225   4.816   3.204   1.683 -0.2086 -0.4786  0.5223
  395SOL    HW1 1226   4.770   3.163   1.610  0.7227 -1.6147  0.5647
  395SOL    HW2 1227   4.868   3.134   1.722  1.3992  0.7205  0.6129
  396SOL     OW 1228   4.377   3.517   0.864  0.1623  0.6353  0.4511
  396SOL    HW1 1229   4.345   3.428   0.878  1.6366  0.0947  0.6143
  396SOL    HW2 1230   4.345   3.540   0.776  0.3305 -0.3236  0.1261
  397SOL     OW 1231   1.411   3.602   1.696  0.3208  1.1533 -0.5886
  397SOL    HW1 1232   1.496   3.637   1.671  1.5987 -1.1892  0.2035
  397SOL    HW2 1233   1.373   3.569   1.614  0.3454  1.7804 -0.8617
  398SOL     OW 1234   5.078   2.486   1.837  0.0792  0.0876  0.0034
  398SOL    HW1 1235   5.017   2.443   1.897  0.2456 -1.6976 -1.0408
  398SOL    HW2 1236   5.164   2.472   1.876  0.1150 -0.3421 -0.2285
  399SOL     OW 1237   1.306   2.163   0.332 -0.2027  0.8723 -0.2106
  399SOL    HW1 1238   1.379   2.168   0.271 -0.0920 -0.6494 -0.2532
  399SOL    HW2 1239   1.228   2.160   0.276 -0.1775  0.7039 -0.2378
  400SOL     OW 1240   4.529   3.599   0.554  0.5782  0.3098  0.1492
  400SOL    HW1 1241   4.442   3.597   0.593  0.7865  2.2505  0.8703
  400SOL    HW2 1242   4.521   3.658   0.479  0.9680 -0.6380 -0.6611
  401SOL     OW 1243   1.281   3.195   1.406  0.6426  0.5472 -0.1826
  401SOL    HW1 1244   1.377   3.202   1.406  0.7022 -0.1231 -0.6966
  401SOL    HW2 1245   1.261   3.141   1.482  0.5788  1.5704  0.5577
  402SOL     OW 1246   0.495   3.673   0.585 -0.2543  0.3446 -0.5027
  402SOL    HW1 1247   0.509   3.623   0.666 -0.6347  0.6051 -0.2751
  402SOL    HW2 1248   0.415   3.636   0.548 -0.2066  0.3827 -0.6442
  403SOL     OW 1249   4.633   2.639   1.104 -0.4526  0.5522 -0.3266
  403SOL    HW1 1250   4.689   2.694   1.159 -0.7882  0.2927  0.2893
  403SOL    HW2 1251   4.686   2.562   1.084 -1.4143 -0.9783  2.4634
  404SOL     OW 1252   4.717   3.841   1.548 -0.8742  0.6027  0.0643
  404SOL    HW1 1253   4.625   3.815   1.553 -1.0616  1.0465 -0.9076
  404SOL    HW2 1254   4.753   3.815   1.633 -2.2281  1.7037  1.0245
  405SOL     OW 1255   0.827   2.682   0.307 -0.1337  0.2802 -0.4229
  405SOL    HW1 1256   0.860   2.759   0.260 -1.6143  0.9504 -0.4400
  405SOL    HW2 1257   0.801   2.716   0.392 -1.1243 -0.1301 -0.5519
  406SOL     OW 1258   1.647   2.044   1.396  0.0742  0.2225  0.1307
  406SOL    HW1 1259   1.679   1.962   1.358  1.0875  1.6743 -2.4305
  406SOL    HW2 1260   1.712   2.066   1.462  0.6623 -0.2694 -0.2702
  407SOL     OW 1261   0.580   2.384   0.455 -0.0632 -0.6571  0.3247
  407SOL    HW1 1262   0.628   2.429   0.385 -0.9282 -0.9094 -0.4527
  407SOL    HW2 1263   0.574   2.449   0.525  1.8622 -0.8016  0.6638
  408SOL     OW 1264   1.847   3.515   0.489  0.3504  0.2934  0.0066
  408SOL    HW1 1265   1.939   3.495   0.474  0.9098  1.4536  1.6430
  408SOL    HW2 1266   1.823   3.468   0.568 -0.2924  0.4904 -0.0585
  409SOL     OW 1267   4.114   3.288   0.077 -0.0127 -0.0428  0.5371
  409SOL    HW1 1268   4.140   3.213   0.132  2.4918 -0.1609 -0.6603
  409SOL    HW2 1269   4.174   3.358   0.103  1.9223 -0.3825 -2.5299
  410SOL     OW 1270   1.582   3.023   1.042  0.0477  0.5215  0.2484
  410SOL    HW1 1271   1.581   2.968   1.120  1.1514  1.1979  0.7642
  410SOL    HW2 1272   1.489   3.032   1.018 -0.2693 -0.1114  1.1627
  411SOL     OW 1273   2.047   3.250   0.559 -0.4560 -0.3910 -0.0050
  411SOL    HW1 1274   2.123   3.196   0.576 -0.3496 -0.9205 -2.0013
  411SOL    HW2 1275   1.974   3.189   0.553 -0.8797  0.0095  0.7936
  412SOL     OW 1276   4.198   2.873   1.501 -0.6681  0.5642  0.2672
  412SOL    HW1 1277   4.287   2.839   1.488 -0.8128 -0.0445  0.8375
  412SOL    HW2 1278   4.211   2.961   1.537 -0.2932 -0.1717  1.9918
  413SOL     OW 1279   4.554   2.998   0.955  0.2167 -0.7255  0.0682
  413SOL    HW1 1280   4.557   2.902   0.953  1.0046 -0.6894 -0.6037
  413SOL    HW2 1281   4.645   3.025   0.963  0.2844  0.0251 -2.5014
  414SOL     OW 1282   1.235   3.216   1.120 -0.1418  0.1409 -0.2881
  414SOL    HW1 1283   1.253   3.130   1.082  0.5720  0.1141  0.1131
  414SOL    HW2 1284   1.219   3.199   1.213  1.1278  0.5637  0.0246
  415SOL     OW 1285   0.535   1.530   0.559 -0.7198 -0.1596 -0.1711
  415SOL    HW1 1286   0.531   1.623   0.583  1.7432  0.6109 -2.2429
  415SOL    HW2 1287   0.479   1.524   0.481  1.0287  0.2652 -1.5485
  416SOL     OW 1288   3.932   2.373   1.274 -0.7516 -0.2586 -0.1199
  416SOL    HW1 1289   3.925   2.383   1.369 -1.6268  0.9554 -0.3039
  416SOL    HW2 1290   3.925   2.461   1.239 -0.5143 -0.6972 -1.3340
  417SOL     OW 1291   1.802   2.559   0.365  0.0943 -0.1891 -0.0840
  417SOL    HW1 1292   1.864   2.533   0.433  0.0623  0.1317  0.0701
  417SOL    HW2 1293   1.839   2.639   0.328  0.6337 -0.8983 -1.1384
  418SOL     OW 1294   5.451   3.828   2.004 -0.0843 -0.1439 -0.1924
  418SOL    HW1 1295   5.516   3.821   2.074 -1.6527 -0.6762  1.2687
  418SOL    HW2 1296   5.480   3.764   1.939 -0.0700 -1.6785  1.2386
  419SOL     OW 1297   4.728   2.163   1.651 -0.2709 -0.4711  0.1439
  419SOL    HW1 1298   4.801   2.220   1.674 -0.9876  0.5696 -0.0452
  419SOL    HW2 1299   4.655   2.224   1.633 -0.9462 -1.4294 -0.4890
  420SOL     OW 1300   1.439   3.779   1.117  0.1290  0.5339  0.0473
  420SOL    HW1 1301   1.379   3.773   1.044  0.5833 -1.8560 -0.1990
  420SOL    HW2 1302   1.524   3.753   1.081  1.2349  3.0784  0.5659
  421SOL     OW 1303   1.702   3.715   0.715 -0.2950  0.8222 -0.5898
  421SOL    HW1 1304   1.629   3.654   0.710 -0.2395  0.7935 -1.2096
  421SOL    HW2 1305   1.750   3.701   0.633  1.2036 -0.1472  0.4071
  422SOL     OW 1306   3.002   4.732   3.019  0.7027 -0.1620 -0.0171
  422SOL    HW1 1307   3.024   4.820   2.989 -1.4464  0.2181 -0.5997
  422SOL    HW2 1308   3.022   4.733   3.112 -3.2678  2.4629  1.0492
  423SOL     OW 1309   1.344   2.453   0.739 -0.3176  0.0692  0.4682
  423SOL    HW1 1310   1.282   2.493   0.678  1.2732 -0.2501 -1.4395
  423SOL    HW2 1311   1.323   2.360   0.738  2.5175 -0.7421 -3.2977
  424SOL     OW 1312   1.573   3.285   0.365 -0.2459  0.1182  0.0378
  424SOL    HW1 1313   1.612   3.200   0.345 -0.5571  0.2248 -1.0708
  424SOL    HW2 1314   1.616   3.312   0.447 -1.0973 -1.6932  1.1498
  425SOL     OW 1315   0.892   2.782   1.260  0.0112  0.2875  0.3584
  425SOL    HW1 1316   0.886   2.852   1.325  1.4773  1.3078 -0.5298
  425SOL    HW2 1317   0.924   2.706   1.309  0.5855  0.8896  0.9462
  426SOL     OW 1318   1.812   2.308   2.031 -0.4196 -0.1207  0.2442
  426SOL    HW1 1319   1.729   2.345   2.062 -0.6724 -0.1934 -0.3427
  426SOL    HW2 1320   1.802   2.303   1.936  0.8612  1.3653 -0.0113
  427SOL     OW 1321   1.081   2.291   1.332 -0.5388  0.5238 -0.0787
  427SOL    HW1 1322   1.162   2.267   1.287  0.2078  0.6470  1.1620
  427SOL    HW2 1323   1.016   2.230   1.298  0.0139  0.5783 -1.2755
  428SOL     OW 1324   1.219   2.188   0.753  0.4542  0.8914  0.0859
  428SOL    HW1 1325   1.281   2.149   0.691  0.4030  2.0602 -0.7313
  428SOL    HW2 1326   1.137   2.142   0.736  0.6704  0.5466 -0.0428
  429SOL     OW 1327   1.101   2.777   0.797 -0.4409  0.6773 -0.5097
  429SOL    HW1 1328   1.042   2.837   0.842  0.0019  1.0152 -0.3628
  429SOL    HW2 1329   1.079   2.787   0.705 -2.1024 -0.8319 -0.3153
  430SOL     OW 1330   4.574   2.511   0.568  0.6993  0.0668 -0.1760
  430SOL    HW1 1331   4.566   2.533   0.661 -1.3436 -1.4286  0.0771
  430SOL    HW2 1332   4.583   2.595   0.524  0.2853  0.9024  1.2713
  431SOL     OW 1333   4.417   3.647   2.028 -0.3085 -0.6643  0.0558
  431SOL    HW1 1334   4.447   3.688   2.109  1.1251 -2.8358  0.6945
  431SOL    HW2 1335   4.333   3.689   2.010 -0.0467  0.7955  1.9408
  432SOL     OW 1336   3.349   4.391   2.927 -0.0968 -0.0639 -0.1378
  432SOL    HW1 1337   3.284   4.333   2.889 -1.7353  1.9791 -0.6494
  432SOL    HW2 1338   3.430   4.373   2.878 -0.3773 -2.1934  0.0850
  433SOL     OW 1339   2.121   2.406   1.629  0.0394  0.7683 -0.2331
  433SOL    HW1 1340   2.182   2.452   1.686  0.6526  1.8040 -1.6584
  433SOL    HW2 1341   2.060   2.362   1.688  1.5513  0.5411  1.2074
  434SOL     OW 1342   1.428   3.127   0.720  0.4366  0.2320 -0.1321
  434SOL    HW1 1343   1.508   3.143   0.669  0.8063  1.8428  0.8915
  434SOL    HW2 1344   1.448   3.048   0.770  1.6686  0.9620  0.5883
  435SOL     OW 1345   4.737   2.245   0.760  0.1643 -0.1230  0.0777
  435SOL    HW1 1346   4.745   2.153   0.782 -2.3948 -0.5198 -0.3986
  435SOL    HW2 1347   4.659   2.275   0.806 -0.5044  1.1301 -1.7367
  436SOL     OW 1348   0.948   3.260   0.285 -0.1785  0.2597 -0.1470
  436SOL    HW1 1349   0.960   3.350   0.254  2.1769  0.8125  2.0019
  436SOL    HW2 1350   0.972   3.264   0.378  2.3090 -2.9966 -0.4751
  437SOL     OW 1351   4.594   3.468   1.006 -0.8793  0.2266  0.4504
  437SOL    HW1 1352   4.514   3.486   0.957 -0.5791 -0.1458 -0.1953
  437SOL    HW2 1353   4.648   3.546   0.993 -1.9494  1.4005  2.6335
  438SOL     OW 1354   1.660   2.515   1.103  0.2405  0.4583 -0.1897
  438SOL    HW1 1355   1.619   2.549   1.024 -1.1652 -1.6670 -0.4615
  438SOL    HW2 1356   1.661   2.420   1.090  0.6779  0.1155  2.0132
  439SOL     OW 1357   5.347   3.124   1.758 -0.1099  0.1574  0.0505
  439SOL    HW1 1358   5.380   3.077   1.682 -0.2083 -0.8435  0.6125
  439SOL    HW2 1359   5.330   3.213   1.726 -0.9865 -0.4740 -1.3038
  440SOL     OW 1360   0.605   2.561   0.200  0.5271 -0.4068 -0.5397
  440SOL    HW1 1361   0.690   2.598   0.226  0.5123 -0.3805 -0.5289
  440SOL    HW2 1362   0.542   2.630   0.218 -0.1515 -1.8064  3.6324
  441SOL     OW 1363   1.435   2.842   0.779 -0.4809  0.1336 -0.3913
  441SOL    HW1 1364   1.382   2.809   0.706 -0.9293 -0.7051  0.3084
  441SOL    HW2 1365   1.476   2.765   0.816  0.3597  0.6516 -0.2165
  442SOL     OW 1366   4.591   2.824   1.920 -0.1644  0.6526 -0.3192
  442SOL    HW1 1367   4.608   2.863   2.006  1.6793  1.4766 -0.9991
  442SOL    HW2 1368   4.551   2.740   1.939 -1.5396  1.6030  1.2854
  443SOL     OW 1369   1.602   3.794   0.063 -0.3253  0.9573  0.5121
  443SOL    HW1 1370   1.622   3.765   0.152 -0.7859 -1.1069 -0.0121
  443SOL    HW2 1371   1.519   3.751   0.042 -0.7584  2.2708 -0.5500
  444SOL     OW 1372   4.369   2.100   1.655  0.4019 -0.7989  0.2292
  444SOL    HW1 1373   4.417   2.168   1.607  1.5399 -1.6797  0.0854
  444SOL    HW2 1374   4.293   2.146   1.692  1.0704  0.5147  0.0247
  445SOL     OW 1375   1.836   3.284   0.235  0.1123 -0.0668 -0.2181
  445SOL    HW1 1376   1.856   3.374   0.259 -0.1654  0.1575 -0.8024
  445SOL    HW2 1377   1.782   3.292   0.156  1.2647 -0.7881 -1.1027
  446SOL     OW 1378   0.615   3.246   0.607  0.2761  0.1364 -0.3358
  446SOL    HW1 1379   0.637   3.320   0.550  1.5571  0.2568  0.2803
  446SOL    HW2 1380   0.691   3.236   0.664 -0.7182 -0.3440  0.9723
  447SOL     OW 1381   1.418   2.117   0.579  0.2060 -0.1474 -0.3976
  447SOL    HW1 1382   1.499   2.095   0.534 -0.1894 -1.3293 -0.5973
  447SOL    HW2 1383   1.364   2.160   0.513 -0.2855 -1.6702 -1.0409
  448SOL     OW 1384   4.097   3.655   1.244  0.1731 -0.1510  0.0420
  448SOL    HW1 1385   4.176   3.689   1.203  0.0412 -0.0847 -0.1609
  448SOL    HW2 1386   4.031   3.722   1.226  0.2895  0.2518  1.0134
  449SOL     OW 1387   5.011   3.516   1.142  0.4540  0.3643 -0.6504
  449SOL    HW1 1388   4.944   3.448   1.147 -0.1726  0.8667 -1.7723
  449SOL    HW2 1389   5.075   3.491   1.208 -0.0554 -0.9835 -0.6244
  450SOL     OW 1390   0.544   2.344   0.050 -0.5932 -0.0516  0.0508
  450SOL    HW1 1391   0.568   2.425   0.096 -2.8427  1.1316 -0.7243
  450SOL    HW2 1392   0.506   2.289   0.119 -0.7116  0.2944  0.2683
  451SOL     OW 1393   1.829   2.170   1.564  0.4352  0.3680 -0.1388
  451SOL    HW1 1394   1.904   2.166   1.623 -0.0292  0.6044  0.4845
  451SOL    HW2 1395   1.829   2.260   1.532  1.6484 -0.1827 -1.8110
  452SOL     OW 1396   2.413   3.712   2.995  0.5821 -0.9512 -0.4252
  452SOL    HW1 1397   2.486   3.650   3.001  1.3860  0.1198  1.8204
  452SOL    HW2 1398   2.345   3.673   3.050 -0.2737 -1.4990 -1.8025
  453SOL     OW 1399   1.185   2.473   1.710 -0.7097 -0.3871 -0.7334
  453SOL    HW1 1400   1.184   2.378   1.711  0.7737 -0.4555 -2.0903
  453SOL    HW2 1401   1.236   2.496   1.633 -0.5145  1.5123 -0.0960
  454SOL     OW 1402   5.191   3.466   1.331 -0.0876 -0.1102  0.1892
  454SOL    HW1 1403   5.235   3.542   1.293  0.4329  0.0377  1.0463
  454SOL    HW2 1404   5.224   3.463   1.421 -1.6213 -0.1768  0.7690
  455SOL     OW 1405   1.391   2.131   1.432 -0.3180  0.2420 -0.1109
  455SOL    HW1 1406   1.464   2.077   1.403 -1.4231 -0.9219 -0.7782
  455SOL    HW2 1407   1.411   2.218   1.398  1.4960  0.3208  1.0086
  456SOL     OW 1408   0.811   3.247   0.806 -0.0160  0.4712  0.4545
  456SOL    HW1 1409   0.875   3.318   0.802  1.6922 -1.0344 -0.1224
  456SOL    HW2 1410   0.828   3.203   0.889 -0.2197  0.0003  0.2531
  457SOL     OW 1411   1.061   2.299   0.948 -0.0656 -0.7021 -0.1342
  457SOL    HW1 1412   1.113   2.285   1.027 -0.5758  1.0053  0.5397
  457SOL    HW2 1413   1.108   2.249   0.880  0.7808 -1.6087  1.0638
  458SOL     OW 1414   0.732   2.017   0.062 -0.2039  0.3500 -0.1080
  458SOL    HW1 1415   0.745   2.074  -0.013  0.3626 -0.5106 -0.6885
  458SOL    HW2 1416   0.724   2.076   0.137 -1.7839  1.2733 -0.9477
  459SOL     OW 1417   1.561   3.024   0.151  0.1365  0.2699 -0.5486
  459SOL    HW1 1418   1.595   3.113   0.144  0.7399  0.0473 -0.5446
  459SOL    HW2 1419   1.608   2.976   0.083  0.2150 -0.1619 -0.1904
  460SOL     OW 1420   4.155   1.736   0.179  0.0274 -0.5753  0.3408
  460SOL    HW1 1421   4.160   1.641   0.187 -1.6907 -0.6661  0.6608
  460SOL    HW2 1422   4.066   1.758   0.205  1.0721  1.3923  2.6593
  461SOL     OW 1423   2.827   4.362   2.909 -0.5717  0.0288  0.0470
  461SOL    HW1 1424   2.779   4.429   2.958 -0.6160 -0.4046  0.6086
  461SOL    HW2 1425   2.892   4.411   2.859 -0.0744  0.4432  1.0587
  462SOL     OW 1426   1.136   2.595   0.991  0.3175 -0.5520  0.2823
  462SOL    HW1 1427   1.121   2.646   0.911 -0.4043 -0.8947  0.1950
  462SOL    HW2 1428   1.088   2.514   0.977  1.0271 -1.0416  0.6452
  463SOL     OW 1429   0.914   3.657   0.971  0.4677 -0.9378  0.0684
  463SOL    HW1 1430   0.852   3.647   0.899  0.8202 -0.4942 -0.3055
  463SOL    HW2 1431   0.862   3.643   1.050  0.1279 -1.6715 -0.2795
  464SOL     OW 1432   5.035   2.716   1.066  0.1398  0.1335 -0.5794
  464SOL    HW1 1433   5.061   2.631   1.030  0.5798 -0.2764  0.6312
  464SOL    HW2 1434   5.095   2.729   1.140 -0.7069  0.9412 -0.0197
  465SOL     OW 1435   1.150   3.523   0.584  0.3339 -0.2819 -0.0353
  465SOL    HW1 1436   1.223   3.463   0.571  2.2540  2.2109 -1.9171
  465SOL    HW2 1437   1.103   3.522   0.501 -2.3346 -2.3368  1.3569
  466SOL     OW 1438   3.405   4.490   2.633  0.3418  0.0266 -0.1144
  466SOL    HW1 1439   3.477   4.497   2.696  2.4654 -0.7410 -2.3139
  466SOL    HW2 1440   3.429   4.549   2.562 -0.7282 -0.9649 -1.3432
  467SOL     OW 1441   4.674   2.300   1.262  0.3414 -0.2981 -0.5302
  467SOL    HW1 1442   4.712   2.380   1.296  0.1805 -1.4336  2.6433
  467SOL    HW2 1443   4.748   2.240   1.253  0.2701 -0.2541 -1.6261
  468SOL     OW 1444   4.952   2.159   1.386 -0.2553  0.3981 -0.4437
  468SOL    HW1 1445   4.889   2.088   1.388 -0.3128  0.4606  0.0876
  468SOL    HW2 1446   4.960   2.188   1.477  0.4447  0.4726 -0.5182
  469SOL     OW 1447   0.688   2.164   0.283  0.2817 -0.0005 -0.3661
  469SOL    HW1 1448   0.631   2.195   0.354 -1.5082 -2.2472 -0.6997
  469SOL    HW2 1449   0.756   2.230   0.277 -0.8515  1.5116  1.8229
  470SOL     OW 1450   0.307   1.784   0.382  0.0165 -0.2369 -0.1926
  470SOL    HW1 1451   0.292   1.878   0.389 -0.1242 -0.2017 -0.8611
  470SOL    HW2 1452   0.347   1.773   0.295  1.3404 -0.6391  0.4294
  471SOL     OW 1453   1.489   3.457   1.035 -0.2310  0.3759 -0.1915
  471SOL    HW1 1454   1.412   3.456   0.979  0.1140 -0.4042 -0.6661
  471SOL    HW2 1455   1.546   3.524   0.996 -0.2518  0.2671 -0.4073
  472SOL     OW 1456   1.555   2.582   0.863  0.6708 -0.7692 -0.2139
  472SOL    HW1 1457   1.490   2.541   0.807 -1.0480  0.9394  0.4356
  472SOL    HW2 1458   1.639   2.564   0.820 -0.5216  0.0773 -3.1027
  473SOL     OW 1459   2.017   2.776   0.185  0.1216 -0.1930 -1.1533
  473SOL    HW1 1460   2.054   2.849   0.234 -3.0511  1.6448 -1.2371
  473SOL    HW2 1461   2.086   2.752   0.123  1.9263  1.5309  0.0565
  474SOL     OW 1462   0.610   3.063   0.216  0.2142  0.2735 -0.0157
  474SOL    HW1 1463   0.694   3.055   0.260 -1.1914 -2.6802  2.4441
  474SOL    HW2 1464   0.551   3.096   0.283 -1.5003 -2.1229 -0.2163
  475SOL     OW 1465   1.624   3.366   0.641 -0.2701 -0.0566 -0.0312
  475SOL    HW1 1466   1.576   3.440   0.680 -0.4538 -0.7681  1.1531
  475SOL    HW2 1467   1.710   3.369   0.683  0.2574  0.3640 -1.0981
  476SOL     OW 1468   3.882   4.583   2.991 -0.3815  0.1090 -0.2497
  476SOL    HW1 1469   3.950   4.543   3.044  0.2815  1.3345 -0.1280
  476SOL    HW2 1470   3.839   4.510   2.946  0.6547 -0.7231  0.0928
  477SOL     OW 1471   0.660   1.815   0.385  0.5808 -0.4360  0.5878
  477SOL    HW1 1472   0.683   1.772   0.303 -0.6998 -0.7498  0.3770
  477SOL    HW2 1473   0.647   1.907   0.362 -0.8664 -0.7139  0.1982
  478SOL     OW 1474   1.738   2.947   1.524 -0.1961  0.0564  0.0154
  478SOL    HW1 1475   1.750   3.016   1.589  1.0244  0.2356 -0.3759
  478SOL    HW2 1476   1.760   2.988   1.441  1.7030 -1.0803 -0.0985
  479SOL     OW 1477   1.798   3.390   1.507  0.3889 -0.2897 -0.1728
  479SOL    HW1 1478   1.813   3.376   1.600 -1.1531  0.6485  0.2577
  479SOL    HW2 1479   1.871   3.345   1.464 -0.4255 -3.2686  1.3289
  480SOL     OW 1480   1.172   3.049   0.684  0.0904 -0.4344 -0.1499
  480SOL    HW1 1481   1.191   2.957   0.665 -0.9361 -1.0475  1.5411
  480SOL    HW2 1482   1.257   3.087   0.703  0.3342 -1.6308  1.3712
  481SOL     OW 1483   1.552   2.879   1.266  0.2992  0.5651  0.3977
  481SOL    HW1 1484   1.489   2.807   1.271  1.8047 -0.9328 -0.9046
  481SOL    HW2 1485   1.596   2.879   1.351 -0.3129  0.5552  0.7216
  482SOL     OW 1486   4.994   2.024   1.012 -0.2538  0.6932 -0.1643
  482SOL    HW1 1487   5.009   1.946   1.064  1.1035 -0.0950 -1.6486
  482SOL    HW2 1488   4.929   1.997   0.946 -1.5585  1.5237  0.7265
  483SOL     OW 1489   5.429   2.992   1.530  0.3111 -0.0161  0.0200
  483SOL    HW1 1490   5.395   3.059   1.472  0.0075  0.3445  0.6007
  483SOL    HW2 1491   5.367   2.920   1.523  0.0848  0.1656  0.1669
  484SOL     OW 1492   0.708   2.887   0.815 -0.0744 -0.0976  0.1280
  484SOL    HW1 1493   0.695   2.847   0.901 -1.5955  2.3222  1.1770
  484SOL    HW2 1494   0.790   2.935   0.823 -1.3598  2.1390  1.2548
  485SOL     OW 1495   4.771   2.778   1.467  0.1481 -0.2291 -0.3887
  485SOL    HW1 1496   4.791   2.809   1.379 -0.3396 -0.3899 -0.5659
  485SOL    HW2 1497   4.796   2.850   1.525 -0.1351  0.1384 -0.7165
  486SOL     OW 1498   5.171   1.857   1.186  0.1507 -0.6726 -0.1525
  486SOL    HW1 1499   5.230   1.783   1.202 -1.0476 -1.7761 -0.6788
  486SOL    HW2 1500   5.096   1.840   1.243 -0.5355 -0.3633 -0.9484
  487SOL     OW 1501   4.471   3.042   1.262  0.1290  0.3230 -0.3994
  487SOL    HW1 1502   4.541   3.038   1.197  0.1056 -1.0310 -0.3717
  487SOL    HW2 1503   4.415   3.114   1.233  1.2715  1.1314 -0.6736
  488SOL     OW 1504   4.843   3.068   0.892 -0.0894 -0.5577  1.0505
  488SOL    HW1 1505   4.851   3.118   0.810  1.3867  2.3353  2.8220
  488SOL    HW2 1506   4.884   2.984   0.872 -0.6044 -0.3096 -1.4292
  489SOL     OW 1507   0.882   2.341   0.686 -0.0857 -0.2417 -0.1850
  489SOL    HW1 1508   0.795   2.371   0.713  0.0976  1.6486 -1.4551
  489SOL    HW2 1509   0.909   2.279   0.754 -0.8186  2.0303  2.3599
  490SOL     OW 1510   1.699   3.264   1.075 -0.3984 -0.4135  0.1818
  490SOL    HW1 1511   1.640   3.331   1.042  0.7525  0.0633 -1.0271
  490SOL    HW2 1512   1.651   3.182   1.065  0.1818 -0.4695 -3.8185
  491SOL     OW 1513   1.285   3.496   1.485  0.0903  0.4893 -0.0549
  491SOL    HW1 1514   1.300   3.414   1.438 -0.7988 -0.0310  0.5208
  491SOL    HW2 1515   1.200   3.483   1.528 -0.7868  2.2669 -1.1371
  492SOL     OW 1516   1.734   2.435   0.721  0.0299  0.1822  0.1456
  492SOL    HW1 1517   1.667   2.431   0.653  0.6470 -0.1882 -0.4525
  492SOL    HW2 1518   1.813   2.463   0.675  0.6489 -0.8282  0.5537
  493SOL     OW 1519   4.466   3.349   1.215  0.0663 -0.1743 -0.4994
  493SOL    HW1 1520   4.521   3.385   1.145  0.9571  0.2313  0.3889
  493SOL    HW2 1521   4.463   3.418   1.281 -3.1317  0.6487 -1.3118
  494SOL     OW 1522   4.847   2.643   1.747  0.1637  0.3161 -0.4191
  494SOL    HW1 1523   4.918   2.579   1.741 -0.6119 -0.5373 -0.9446
  494SOL    HW2 1524   4.869   2.711   1.684  1.1778  0.7657  0.3928
  495SOL     OW 1525   1.783   2.404   1.768 -0.8858  0.0374  0.8098
  495SOL    HW1 1526   1.707   2.459   1.785  0.6528  1.8333  2.4161
  495SOL    HW2 1527   1.806   2.421   1.677 -0.6569  1.8649  1.1739
  496SOL     OW 1528   5.526   2.046   1.896 -0.0067  0.5351  0.6052
  496SOL    HW1 1529   5.553   2.027   1.806  0.0052  1.3289  0.4297
  496SOL    HW2 1530   5.457   1.983   1.915  0.0264  0.3291  0.0541
  497SOL     OW 1531   4.664   1.897   1.749  0.2097 -0.0356  0.2138
  497SOL    HW1 1532   4.652   1.915   1.842 -0.4881 -1.3634  0.3920
  497SOL    HW2 1533   4.623   1.971   1.705  1.4507  1.1432  0.9401
  498SOL     OW 1534   0.599   2.410   0.821 -0.2870 -0.2152  0.1347
  498SOL    HW1 1535   0.563   2.444   0.902 -1.6114  0.0979 -0.5617
  498SOL    HW2 1536   0.550   2.330   0.804 -1.4988  0.7837 -1.3853
  499SOL     OW 1537   1.119   2.842   1.140 -0.4373  0.1388 -0.5421
  499SOL    HW1 1538   1.122   2.759   1.093  1.4513 -0.1500  0.0028
  499SOL    HW2 1539   1.033   2.843   1.182  1.0982 -3.9928  3.6105
  500SOL     OW 1540   0.964   1.879   0.084 -0.9646 -0.3199  0.4795
  500SOL    HW1 1541   0.881   1.926   0.084  0.2131  1.8904  0.8193
  500SOL    HW2 1542   1.031   1.948   0.084  0.8790 -2.0083  1.6891
  501SOL     OW 1543   4.258   1.925   1.429 -0.3897  0.7286 -0.2692
  501SOL    HW1 1544   4.257   1.948   1.522 -1.3692 -0.8304  0.1436
  501SOL    HW2 1545   4.311   1.846   1.424 -1.0673  0.2976 -0.8952
  502SOL     OW 1546   4.077   3.071   1.204 -0.1652 -0.2632 -0.6133
  502SOL    HW1 1547   4.094   3.137   1.137  0.5926  0.7239  0.4952
  502SOL    HW2 1548   4.027   3.003   1.159 -1.5422  1.3609 -1.6721
  503SOL     OW 1549   0.338   2.305   0.426  0.2759 -0.0098 -0.1392
  503SOL    HW1 1550   0.422   2.325   0.466 -0.6532 -0.8103  2.3418
  503SOL    HW2 1551   0.275   2.362   0.471 -0.5519  0.7107 -2.0737
  504SOL     OW 1552   1.876   2.916   1.913 -0.4261 -0.4613  0.1915
  504SOL    HW1 1553   1.791   2.926   1.954 -0.2642  0.8873  0.2538
  504SOL    HW2 1554   1.857   2.883   1.825 -1.1388  1.1465 -0.2927
  505SOL     OW 1555   4.594   2.040   0.449 -0.0248 -0.0697 -0.5822
  505SOL    HW1 1556   4.644   2.121   0.460 -1.1701  0.5165  0.6833
  505SOL    HW2 1557   4.552   2.026   0.534 -2.3320 -0.2494 -1.6638
  506SOL     OW 1558   1.088   2.420   0.227 -0.0037 -0.2364  0.0098
  506SOL    HW1 1559   1.155   2.487   0.242 -0.6018  0.6255 -1.0189
  506SOL    HW2 1560   1.021   2.438   0.293 -0.3726  0.4913 -0.5427
  507SOL     OW 1561   5.235   2.494   1.323  0.2105 -0.3977  0.4579
  507SOL    HW1 1562   5.300   2.426   1.338  0.6864 -0.3571 -1.2317
  507SOL    HW2 1563   5.212   2.486   1.231  1.7906  2.9897 -0.3715
  508SOL     OW 1564   5.200   3.569   1.875  0.0253 -0.1097 -0.7928
  508SOL    HW1 1565   5.221   3.524   1.793  0.3194 -0.9967 -0.2390
  508SOL    HW2 1566   5.282   3.567   1.925  0.0448  1.0258 -0.7350
  509SOL     OW 1567   1.796   3.093   1.284 -0.0351 -0.1361 -0.0887
  509SOL    HW1 1568   1.767   3.156   1.218  1.1245  1.0174  0.4633
  509SOL    HW2 1569   1.883   3.124   1.310  2.3457 -4.0265 -2.4631
  510SOL     OW 1570   4.980   2.970   1.598  0.0421  0.6195 -0.0861
  510SOL    HW1 1571   5.052   2.931   1.648  1.0283  0.7498 -1.3678
  510SOL    HW2 1572   4.904   2.962   1.656  1.0381  0.3221  1.2282
  511SOL     OW 1573   3.606   4.315   2.859 -0.5127 -0.6027 -0.0461
  511SOL    HW1 1574   3.697   4.344   2.853 -0.5108 -0.1678  1.6976
  511SOL    HW2 1575   3.600   4.243   2.796  1.1298 -0.8775  0.0685
  512SOL     OW 1576   1.619   2.624   0.082  0.2073 -0.2038  0.2781
  512SOL    HW1 1577   1.636   2.543   0.033 -0.5789 -0.2805  0.1160
  512SOL    HW2 1578   1.546   2.601   0.139  0.9405 -0.0354  1.3025
  513SOL     OW 1579   1.236   3.404   0.917 -0.2818  0.2860  0.0555
  513SOL    HW1 1580   1.191   3.357   0.847 -1.8526  1.0092  0.5229
  513SOL    HW2 1581   1.231   3.345   0.992  1.4520 -0.5131 -0.4246
  514SOL     OW 1582   0.513   2.855   0.555  0.0958  0.3547 -0.2846
  514SOL    HW1 1583   0.425   2.862   0.593  0.2035 -2.2039  0.5928
  514SOL    HW2 1584   0.570   2.900   0.616 -0.2847 -0.2119  0.5008
  515SOL     OW 1585   4.788   2.447   1.044  0.0183 -0.4824  0.2282
  515SOL    HW1 1586   4.712   2.390   1.034 -0.4218 -0.0595  1.0446
  515SOL    HW2 1587   4.857   2.390   1.079 -0.0441 -0.7790 -0.1323
  516SOL     OW 1588   1.167   2.207   1.562  0.5073  0.0938  0.6137
  516SOL    HW1 1589   1.121   2.235   1.483 -0.3624 -0.3193  0.9566
  516SOL    HW2 1590   1.250   2.172   1.530  1.0308  1.7520  0.0636
  517SOL     OW 1591   1.340   1.961   1.670 -0.5177 -0.0271  0.1448
  517SOL    HW1 1592   1.403   1.889   1.667 -1.7394 -1.2751  1.9812
  517SOL    HW2 1593   1.371   2.024   1.604  1.2157 -1.7089 -0.7333
  518SOL     OW 1594   4.343   3.049   0.340 -0.1147  0.0012 -0.0006
  518SOL    HW1 1595   4.256   3.081   0.320  0.1592  1.5105  1.0474
  518SOL    HW2 1596   4.371   3.102   0.415  1.9174 -0.0501 -0.6690
  519SOL     OW 1597   4.253   3.261   1.096 -0.2443 -0.1981  0.3690
  519SOL    HW1 1598   4.324   3.287   1.155 -0.3932 -2.2042  1.5583
  519SOL    HW2 1599   4.205   3.342   1.078  0.4248  0.6567  2.1962
  520SOL     OW 1600   4.844   2.830   1.203  0.4375  0.4687  0.0529
  520SOL    HW1 1601   4.856   2.919   1.170  1.7003 -0.2957 -1.6806
  520SOL    HW2 1602   4.907   2.777   1.154 -1.8773 -1.8075 -0.6792
  521SOL     OW 1603   1.327   2.695   1.288  0.4447  0.5694  0.2481
  521SOL    HW1 1604   1.255   2.751   1.260  0.2208  0.3135  0.2951
  521SOL    HW2 1605   1.325   2.621   1.227  2.0835  1.6156 -1.1584
  522SOL     OW 1606   4.086   2.424   0.974  0.0169  0.4442 -0.6234
  522SOL    HW1 1607   4.026   2.398   1.043 -0.0394  3.0461  0.4492
  522SOL    HW2 1608   4.060   2.514   0.952  0.3044 -0.1192 -3.7837
  523SOL     OW 1609   4.678   2.426   1.737 -0.1418  0.7927 -0.2420
  523SOL    HW1 1610   4.738   2.499   1.725 -1.5642  2.0437  0.0056
  523SOL    HW2 1611   4.600   2.450   1.688 -0.0549 -1.3441 -1.5623
  524SOL     OW 1612   1.555   2.602   1.771  0.0017  0.2225  0.0158
  524SOL    HW1 1613   1.484   2.584   1.709 -0.1929  1.0947 -0.0169
  524SOL    HW2 1614   1.537   2.690   1.804  0.9926  0.3972  0.1090
  525SOL     OW 1615   2.934   4.426   2.631  0.1704 -0.3911  0.9400
  525SOL    HW1 1616   2.906   4.356   2.572 -0.1972 -0.6797  1.4437
  525SOL    HW2 1617   2.866   4.493   2.623 -0.3419 -0.7985  1.6538
  526SOL     OW 1618   1.561   2.161   1.016 -0.8044 -0.6904  0.0516
  526SOL    HW1 1619   1.578   2.066   1.012  3.2537 -0.1506 -0.1540
  526SOL    HW2 1620   1.596   2.188   1.101 -1.6204  0.6948 -0.0284
  527SOL     OW 1621   4.636   3.319   1.851  0.0409 -0.4079  0.1985
  527SOL    HW1 1622   4.668   3.351   1.936  1.4432 -0.4746 -0.2788
  527SOL    HW2 1623   4.715   3.293   1.804 -0.3977  2.0166 -2.1441
  528SOL     OW 1624   4.952   2.250   1.126  0.4384  0.5639  0.4130
  528SOL    HW1 1625   4.969   2.168   1.080 -0.2980  0.7455 -0.2060
  528SOL    HW2 1626   4.983   2.234   1.216  2.2756  0.3418 -0.2104
  529SOL     OW 1627   5.005   3.586   1.584  0.0027 -0.0005 -0.0984
  529SOL    HW1 1628   5.065   3.521   1.618 -0.1893 -0.3648 -0.4497
  529SOL    HW2 1629   5.019   3.663   1.639  0.6137 -0.1582 -0.0260
  530SOL     OW 1630   2.766   4.041   2.859  0.3167  0.2793 -0.7721
  530SOL    HW1 1631   2.671   4.034   2.869  0.0273  0.0653 -3.1337
  530SOL    HW2 1632   2.783   4.135   2.855 -0.1093  0.3136 -2.4649
  531SOL     OW 1633   4.787   3.374   1.187 -0.1999 -0.0323  0.8714
  531SOL    HW1 1634   4.719   3.400   1.124 -1.0566  0.8814  2.1156
  531SOL    HW2 1635   4.748   3.391   1.273  1.2072 -0.5403  1.6494
  532SOL     OW 1636   1.319   2.974   1.005  0.0355 -0.3237  0.3481
  532SOL    HW1 1637   1.248   2.931   1.052 -1.2413  1.0777 -0.1992
  532SOL    HW2 1638   1.342   2.914   0.934 -0.9232 -0.6131  0.2666
  533SOL     OW 1639   1.537   2.414   0.541  0.3121  0.7242 -0.0587
  533SOL    HW1 1640   1.469   2.444   0.600  0.2064 -0.1682  0.2952
  533SOL    HW2 1641   1.505   2.435   0.454 -1.0205 -0.8165  0.0193
  534SOL     OW 1642   1.755   3.650   1.424  0.4401  0.2182  0.2653
  534SOL    HW1 1643   1.785   3.566   1.461 -0.2850  0.4660  1.4659
  534SOL    HW2 1644   1.660   3.642   1.422  0.2600  1.5086  1.6930
  535SOL     OW 1645   5.496   3.619   1.819  0.2380 -0.1640  0.3426
  535SOL    HW1 1646   5.589   3.618   1.795  0.8698  1.4773  2.4331
  535SOL    HW2 1647   5.452   3.579   1.744  2.6221 -1.1483 -0.6558
  536SOL     OW 1648   4.299   2.666   0.636 -0.1679  0.1323  0.1378
  536SOL    HW1 1649   4.318   2.703   0.549 -0.2915 -0.1013  0.0116
  536SOL    HW2 1650   4.216   2.707   0.662 -0.5645 -0.4315 -0.2202
  537SOL     OW 1651   4.942   3.570   1.963  0.3063 -0.3987  0.0172
  537SOL    HW1 1652   4.938   3.475   1.968 -1.4276 -0.4217 -1.1033
  537SOL    HW2 1653   5.035   3.589   1.945  0.8237 -1.7969  1.0917
  538SOL     OW 1654   0.772   1.633   0.147  0.4177 -0.3946 -0.0583
  538SOL    HW1 1655   0.841   1.668   0.091 -0.5171  1.8673  0.1142
  538SOL    HW2 1656   0.705   1.600   0.086  0.5317 -0.2819 -0.2439
  539SOL     OW 1657   1.537   1.912   0.322 -0.1623 -0.4156  0.1012
  539SOL    HW1 1658   1.569   1.909   0.232 -1.4462  0.8133 -0.4265
  539SOL    HW2 1659   1.573   1.993   0.358  0.6051 -1.0576  0.8163
  540SOL     OW 1660   1.364   3.374   0.537 -0.1197  0.0356  0.2609
  540SOL    HW1 1661   1.390   3.298   0.589 -1.4484 -1.3244 -0.9652
  540SOL    HW2 1662   1.407   3.362   0.453 -1.3248 -0.0525 -0.3672
  541SOL     OW 1663   4.358   3.379   2.057 -0.6834  0.1826 -0.4479
  541SOL    HW1 1664   4.398   3.464   2.037 -0.6499  0.2566 -0.0667
  541SOL    HW2 1665   4.269   3.400   2.083 -0.5911  0.1234 -0.0858
  542SOL     OW 1666   1.274   2.846   0.519  0.2039  0.1058 -0.5345
  542SOL    HW1 1667   1.276   2.761   0.475 -2.2594  0.0824 -0.7140
  542SOL    HW2 1668   1.351   2.892   0.486  1.2583 -1.8011 -0.8964
  543SOL     OW 1669   5.307   3.212   1.399 -0.1029  0.2673 -0.7767
  543SOL    HW1 1670   5.217   3.197   1.370 -0.7815  0.9969  0.8565
  543SOL    HW2 1671   5.304   3.295   1.446  0.7916 -1.0763  1.8356
  544SOL     OW 1672   0.435   3.721   0.100  0.2743 -0.0072  0.7022
  544SOL    HW1 1673   0.418   3.664   0.176  0.2016  0.6595  1.1983
  544SOL    HW2 1674   0.486   3.794   0.136  1.2517 -0.2556 -0.1133
  545SOL     OW 1675   1.456   3.885   1.540  0.3289 -0.2024 -0.2948
  545SOL    HW1 1676   1.454   3.791   1.522  0.8189 -0.2167 -0.2864
  545SOL    HW2 1677   1.364   3.911   1.541  0.1825 -0.7131 -0.1308
  546SOL     OW 1678   1.622   1.893   1.015 -0.4258  0.2117 -0.2492
  546SOL    HW1 1679   1.590   1.815   0.970 -0.7279  0.2696 -0.1364
  546SOL    HW2 1680   1.697   1.861   1.067 -0.9753 -0.1500  0.3391
  547SOL     OW 1681   4.550   2.296   1.020 -0.4760  0.0578 -0.4818
  547SOL    HW1 1682   4.457   2.317   1.028  0.1283  2.7927  0.6928
  547SOL    HW2 1683   4.576   2.270   1.109  0.2398  1.2735 -0.3091
  548SOL     OW 1684   3.506   5.653   2.746  0.4108 -0.2907  0.0284
  548SOL    HW1 1685   3.531   5.728   2.691  1.8105 -0.4491  0.4010
  548SOL    HW2 1686   3.411   5.648   2.738  0.3048  1.3988 -0.1664
  549SOL     OW 1687   0.958   3.212   1.042  0.1510 -0.2808  0.4787
  549SOL    HW1 1688   0.918   3.181   1.123  2.4763  0.1676  1.9164
  549SOL    HW2 1689   1.049   3.231   1.067  0.5168  1.4319 -1.8718
  550SOL     OW 1690   1.174   2.696   0.219  0.0341  0.2369  0.1450
  550SOL    HW1 1691   1.103   2.733   0.166  2.0584  1.4392 -1.9229
  550SOL    HW2 1692   1.243   2.763   0.217  1.0227 -0.5776  2.6552
  551SOL     OW 1693   3.772   5.691   3.016 -0.3636  0.0254 -0.5312
  551SOL    HW1 1694   3.705   5.739   3.064  0.2479 -0.0062  0.3793
  551SOL    HW2 1695   3.848   5.750   3.016 -0.7348  0.5839 -2.6163
  552SOL     OW 1696   4.870   3.108   1.161  0.2339 -0.4214  0.2422
  552SOL    HW1 1697   4.859   3.115   1.066 -0.9285 -2.4513  0.1685
  552SOL    HW2 1698   4.853   3.197   1.194  0.1630  0.2006 -1.4040
  553SOL     OW 1699   1.452   3.342   1.284  0.5824 -0.0656  0.3904
  553SOL    HW1 1700   1.505   3.415   1.254 -0.2650  0.4438  0.1042
  553SOL    HW2 1701   1.403   3.313   1.207  0.1823 -0.2991  0.7241
  554SOL     OW 1702   1.216   2.577   0.497 -0.1017 -0.0208 -0.3745
  554SOL    HW1 1703   1.142   2.515   0.496 -1.9515  2.0810 -1.1284
  554SOL    HW2 1704   1.211   2.621   0.412 -0.5587  3.0363  1.1367
  555SOL     OW 1705   0.863   2.091   0.804  0.3152  0.0596 -0.1208
  555SOL    HW1 1706   0.797   2.091   0.874 -0.2508  0.4391 -0.6380
  555SOL    HW2 1707   0.827   2.032   0.737 -0.3042  1.4867 -1.1126
  556SOL     OW 1708   0.463   3.184   0.399 -0.0071 -0.1465  0.0818
  556SOL    HW1 1709   0.376   3.220   0.414  0.6050  1.6513 -0.4115
  556SOL    HW2 1710   0.510   3.199   0.481 -0.3829 -1.9850  0.6962
  557SOL     OW 1711   1.479   2.390   1.334  0.9487  0.3968 -0.2106
  557SOL    HW1 1712   1.565   2.376   1.294  1.1549  2.2786 -0.5225
  557SOL    HW2 1713   1.418   2.382   1.261  0.7478 -1.4374  0.0934
  558SOL     OW 1714   4.594   3.353   0.471  0.3439 -0.6014 -0.0263
  558SOL    HW1 1715   4.535   3.290   0.512  2.3970 -1.8836  1.1509
  558SOL    HW2 1716   4.579   3.434   0.518 -0.0000 -1.0811  0.7103
  559SOL     OW 1717   4.668   3.091   1.469 -0.3778 -0.5008 -0.0387
  559SOL    HW1 1718   4.625   3.174   1.487  0.6532  0.2610 -0.9551
  559SOL    HW2 1719   4.608   3.046   1.410  0.0288  0.5326 -1.2751
  560SOL     OW 1720   5.132   1.929   1.641  0.0094  0.0760  0.1881
  560SOL    HW1 1721   5.225   1.944   1.626  0.2009  0.1348  1.3392
  560SOL    HW2 1722   5.099   2.011   1.678 -0.5663  0.1491 -0.4645
  561SOL     OW 1723   2.434   4.134   2.810  0.1583  0.1121 -0.3570
  561SOL    HW1 1724   2.439   4.179   2.894  1.0284 -0.4695 -0.0816
  561SOL    HW2 1725   2.366   4.068   2.822  0.7755 -0.4516  0.1484
  562SOL     OW 1726   1.388   2.563   1.529  0.1420  0.0512  0.2097
  562SOL    HW1 1727   1.363   2.635   1.471 -0.8507 -0.3735  0.0924
  562SOL    HW2 1728   1.426   2.498   1.470  0.2306  0.1142  0.1965
  563SOL     OW 1729   0.489   1.941   0.163  0.5123 -0.5385  0.0723
  563SOL    HW1 1730   0.461   1.872   0.102 -0.4017  0.8057 -1.0817
  563SOL    HW2 1731   0.578   1.963   0.135  0.4863 -0.6560 -0.1087
  564SOL     OW 1732   1.348   3.364   0.163 -0.5463  0.0903  0.3123
  564SOL    HW1 1733   1.345   3.426   0.236 -0.1116  0.6287 -0.1225
  564SOL    HW2 1734   1.430   3.317   0.176 -1.9380 -2.1013  1.9978
  565SOL     OW 1735   5.270   2.732   1.558  0.0521 -0.2632  0.3729
  565SOL    HW1 1736   5.317   2.733   1.642  0.5692  2.4733  0.1454
  565SOL    HW2 1737   5.217   2.652   1.562  1.0760 -0.9351  2.7097
  566SOL     OW 1738   1.582   3.250   1.491  0.6332  0.0504 -0.2063
  566SOL    HW1 1739   1.526   3.313   1.445 -0.8839  0.6256  2.2421
  566SOL    HW2 1740   1.662   3.299   1.509 -0.2018  1.0578  0.9189
  567SOL     OW 1741   5.221   2.118   1.278 -0.2584  0.3325 -0.3500
  567SOL    HW1 1742   5.205   2.042   1.221 -1.0992 -0.9125  1.4685
  567SOL    HW2 1743   5.135   2.138   1.316  0.3069  1.0403  0.6059
  568SOL     OW 1744   1.538   2.847   1.836  0.5108 -0.5409 -0.2648
  568SOL    HW1 1745   1.489   2.877   1.912 -0.8818 -0.2269 -1.2538
  568SOL    HW2 1746   1.532   2.919   1.773 -1.5411 -2.1405 -2.0642
  569SOL     OW 1747   4.525   3.565   1.385  0.1602 -0.2322 -0.5503
  569SOL    HW1 1748   4.492   3.644   1.428 -2.0954 -0.7335 -1.1885
  569SOL    HW2 1749   4.606   3.544   1.430  0.2341  1.8250  0.3600
  570SOL     OW 1750   1.286   2.343   1.109  0.4853  0.2563 -0.0385
  570SOL    HW1 1751   1.310   2.267   1.057  0.9143  0.6684 -0.4570
  570SOL    HW2 1752   1.275   2.414   1.045 -1.5225  0.1926  0.1683
  571SOL     OW 1753   1.071   1.965   0.653  0.5685  0.1709 -0.0768
  571SOL    HW1 1754   0.990   1.966   0.703  0.5401  0.8614 -0.1335
  571SOL    HW2 1755   1.042   1.964   0.561  0.6210  0.0115 -0.0913
  572SOL     OW 1756   0.969   2.451   0.478  0.2751  0.5054  0.7305
  572SOL    HW1 1757   0.907   2.524   0.472  0.2711  0.4891  0.5832
  572SOL    HW2 1758   0.933   2.395   0.547  0.1065  0.4773  0.6204
  573SOL     OW 1759   2.008   2.203   1.765 -0.0770  0.8091  0.2232
  573SOL    HW1 1760   2.062   2.125   1.753  0.4041  1.2212 -0.4224
  573SOL    HW2 1761   1.971   2.194   1.852  0.4523  0.1503  0.3900
  574SOL     OW 1762   1.798   2.744   1.689  0.5843  0.3202  1.2434
  574SOL    HW1 1763   1.757   2.807   1.630  2.0273  0.9316  0.8531
  574SOL    HW2 1764   1.735   2.672   1.695  0.8481 -0.3400 -2.0152
  575SOL     OW 1765   3.322   5.462   3.037 -0.1196  0.3512 -0.4031
  575SOL    HW1 1766   3.379   5.482   3.112 -2.7271  0.6015  1.6564
  575SOL    HW2 1767   3.345   5.372   3.014  1.1475  0.4631  0.2930
  576SOL     OW 1768   4.806   3.643   1.010  0.0095 -0.3198  0.5555
  576SOL    HW1 1769   4.823   3.735   0.991  1.4599 -0.8121 -0.7907
  576SOL    HW2 1770   4.871   3.620   1.077 -0.3097 -0.3716  0.8464
  577SOL     OW 1771   0.951   2.997   0.857  0.8819  0.1356 -0.5056
  577SOL    HW1 1772   0.965   3.032   0.945 -0.5997  1.4853 -0.7441
  577SOL    HW2 1773   1.001   3.056   0.800  0.3031  0.4316 -0.7135
  578SOL     OW 1774   3.290   4.730   2.995 -0.1130  0.2591 -0.0629
  578SOL    HW1 1775   3.324   4.659   3.049 -0.7454  0.0090  0.0248
  578SOL    HW2 1776   3.197   4.709   2.985  0.1810 -0.2914 -2.1768
  579SOL     OW 1777   1.674   3.686   0.992 -0.4243  0.1936  0.3821
  579SOL    HW1 1778   1.745   3.626   1.017 -1.2344 -1.0416 -0.1446
  579SOL    HW2 1779   1.693   3.708   0.901  0.2060  1.2590  0.7582
  580SOL     OW 1780   4.453   2.597   1.968 -0.2802  0.1689 -0.0899
  580SOL    HW1 1781   4.440   2.596   1.873  0.9118  0.4995 -0.2830
  580SOL    HW2 1782   4.419   2.513   1.998  0.8054 -0.6518 -1.0540
  581SOL     OW 1783   4.475   3.130   0.625 -0.3280  0.4875  0.6167
  581SOL    HW1 1784   4.490   3.038   0.646 -1.2955  0.1689 -0.0361
  581SOL    HW2 1785   4.439   3.168   0.705 -3.0156 -0.4804 -0.0401
  582SOL     OW 1786   4.746   3.482   1.511 -0.1725 -0.4585  0.1280
  582SOL    HW1 1787   4.751   3.393   1.546  1.2000 -1.1705 -1.7335
  582SOL    HW2 1788   4.824   3.526   1.546 -0.9654  0.1146  1.2267
  583SOL     OW 1789   1.706   2.260   1.227  0.1780  0.4553  0.0998
  583SOL    HW1 1790   1.685   2.202   1.300  0.4895 -0.5361 -0.5769
  583SOL    HW2 1791   1.801   2.253   1.216 -0.0715 -0.9728 -1.6380
  584SOL     OW 1792   4.363   2.107   0.299  0.5193  0.0779  0.2286
  584SOL    HW1 1793   4.303   2.070   0.364 -1.2136 -1.5197 -2.0788
  584SOL    HW2 1794   4.432   2.148   0.350 -1.5539  0.3555  3.0577
  585SOL     OW 1795   1.876   3.496   1.039 -0.0385  0.6116  0.2058
  585SOL    HW1 1796   1.953   3.449   1.007  0.0171 -0.2263  1.5101
  585SOL    HW2 1797   1.820   3.428   1.076 -0.8914  1.3481  0.3052
  586SOL     OW 1798   5.059   2.561   1.521 -0.0382  0.1659 -0.2031
  586SOL    HW1 1799   4.986   2.607   1.480  0.6055  1.5477  0.1160
  586SOL    HW2 1800   5.114   2.533   1.449  0.6898  1.8909 -0.3614
  587SOL     OW 1801   1.042   3.231   0.533  0.3157  0.5935 -0.7253
  587SOL    HW1 1802   1.093   3.300   0.575  0.2583 -0.0377  0.4070
  587SOL    HW2 1803   1.071   3.150   0.576 -2.1329  0.2746  0.5025
  588SOL     OW 1804   1.156   2.029   1.133 -0.1847  0.2646  0.1942
  588SOL    HW1 1805   1.158   1.958   1.069 -0.3187 -0.7613  1.2957
  588SOL    HW2 1806   1.124   1.988   1.213  0.9432  1.2806  1.2040
  589SOL     OW 1807   1.182   1.732   1.370 -0.4672  0.3693  0.2413
  589SOL    HW1 1808   1.240   1.775   1.307  0.2159  2.3962  2.1414
  589SOL    HW2 1809   1.111   1.696   1.316  0.2958  1.6410 -1.7305
  590SOL     OW 1810   1.075   3.025   0.306  0.1027 -0.1954 -0.0958
  590SOL    HW1 1811   1.159   3.040   0.263 -1.0965  0.7000 -2.3479
  590SOL    HW2 1812   1.039   3.113   0.320 -1.0137 -0.5704 -0.4622
  591SOL     OW 1813   0.585   3.493   0.772 -0.0469 -0.3196  0.1822
  591SOL    HW1 1814   0.520   3.489   0.842  0.5240 -0.2144  0.7308
  591SOL    HW2 1815   0.624   3.406   0.769 -1.3505 -0.8903 -1.2775
  592SOL     OW 1816   1.257   1.871   0.262  0.9215  0.1341 -0.6796
  592SOL    HW1 1817   1.331   1.889   0.319  1.8855 -1.7227 -1.2709
  592SOL    HW2 1818   1.293   1.874   0.173 -0.6133  3.3517 -1.3804
  593SOL     OW 1819   1.019   1.925   0.389  0.3116 -0.2140  0.2838
  593SOL    HW1 1820   1.099   1.890   0.351 -1.0598 -2.2229 -0.9405
  593SOL    HW2 1821   0.961   1.938   0.314 -1.1493 -0.6043  1.3026
  594SOL     OW 1822   1.673   2.123   0.758 -0.2297  0.4368  0.0427
  594SOL    HW1 1823   1.623   2.140   0.838  1.8267  0.2951  1.4576
  594SOL    HW2 1824   1.712   2.207   0.736 -0.1446  0.2956 -0.3542
  595SOL     OW 1825   0.477   2.804   0.252  0.1497 -0.4884  0.1145
  595SOL    HW1 1826   0.514   2.885   0.216  1.3518 -0.4413  1.3561
  595SOL    HW2 1827   0.456   2.826   0.343  2.3797 -2.0657  1.0899
  596SOL     OW 1828   0.879   3.506   0.082  0.2333 -0.1226 -0.5824
  596SOL    HW1 1829   0.949   3.548   0.034  0.3686 -0.4942 -0.7145
  596SOL    HW2 1830   0.801   3.518   0.027  0.0563  0.8272 -0.1466
  597SOL     OW 1831   4.339   2.369   2.027  0.2273 -0.1844 -0.6406
  597SOL    HW1 1832   4.377   2.285   2.003 -1.0698 -0.7669 -0.6909
  597SOL    HW2 1833   4.245   2.355   2.025  0.0066  0.8790  0.7305
  598SOL     OW 1834   4.877   2.386   2.646 -0.6565  0.1776  0.0524
  598SOL    HW1 1835   4.948   2.371   2.584  0.3748 -1.4442  1.5873
  598SOL    HW2 1836   4.914   2.445   2.712 -0.4983 -1.1703  1.1970
  599SOL     OW 1837   4.117   2.009   2.196  0.3515 -0.3460 -1.0530
  599SOL    HW1 1838   4.024   2.034   2.199 -0.1076 -2.0009  1.1678
  599SOL    HW2 1839   4.162   2.078   2.243 -0.0215 -0.4461 -0.5397
  600SOL     OW 1840   4.673   3.490   2.992 -0.4751  0.6871 -0.4959
  600SOL    HW1 1841   4.662   3.522   2.903 -1.1160 -0.5476 -0.8756
  600SOL    HW2 1842   4.619   3.547   3.046 -0.6115  1.0198 -0.9878
  601SOL     OW 1843   5.773   3.487   2.677 -0.4684 -0.1352  0.4584
  601SOL    HW1 1844   5.747   3.448   2.594 -1.9561  0.6368  0.5288
  601SOL    HW2 1845   5.853   3.535   2.657 -0.3089 -0.6893 -0.3018
  602SOL     OW 1846   5.876   2.369   2.404 -0.5843 -0.5415  0.1176
  602SOL    HW1 1847   5.843   2.424   2.332  1.1216  0.5067  0.0904
  602SOL    HW2 1848   5.916   2.431   2.465 -1.6769 -1.4498  1.8398
  603SOL     OW 1849   1.908   2.203   2.248 -0.0463 -0.3277  0.4995
  603SOL    HW1 1850   1.884   2.235   2.161  1.9188 -0.0398  0.0173
  603SOL    HW2 1851   1.898   2.108   2.241 -1.4445 -0.2034  0.4893
  604SOL     OW 1852   5.175   3.021   2.846 -0.5558 -0.5237 -0.4846
  604SOL    HW1 1853   5.235   2.995   2.776 -0.6625 -2.2852  0.0249
  604SOL    HW2 1854   5.180   2.949   2.909 -0.3544  1.0738  1.4213
  605SOL     OW 1855   5.104   2.864   2.520  0.1175 -0.2264 -0.1514
  605SOL    HW1 1856   5.180   2.896   2.569  0.1504 -1.4307  0.6047
  605SOL    HW2 1857   5.139   2.841   2.434  0.4719 -0.1293 -0.0362
  606SOL     OW 1858   4.576   3.769   2.928  0.2631  0.5161  0.2207
  606SOL    HW1 1859   4.544   3.754   3.017  2.7338  0.0067  1.1128
  606SOL    HW2 1860   4.611   3.858   2.930 -1.1093  1.1103 -0.7629
  607SOL     OW 1861   3.552   1.331   0.645 -0.5736  0.4978 -0.1808
  607SOL    HW1 1862   3.460   1.351   0.627 -1.0282 -1.2385  0.0037
  607SOL    HW2 1863   3.553   1.305   0.737  0.1682  0.8287 -0.0926
  608SOL     OW 1864   5.851   2.390   2.871 -0.7218 -0.2737 -0.0795
  608SOL    HW1 1865   5.873   2.477   2.905  0.8177 -0.8507  0.4927
  608SOL    HW2 1866   5.862   2.331   2.945  2.0590 -1.4694 -1.2607
  609SOL     OW 1867   4.471   3.664   2.320  0.2333  0.5729 -0.3702
  609SOL    HW1 1868   4.541   3.703   2.374 -0.2052  0.4165  0.3295
  609SOL    HW2 1869   4.446   3.585   2.368 -1.3815  1.3576  0.1554
  610SOL     OW 1870   4.401   3.391   2.809  1.0004  0.2898  0.1182
  610SOL    HW1 1871   4.316   3.387   2.853  1.3540 -1.3669  0.7275
  610SOL    HW2 1872   4.412   3.305   2.770  2.7111  0.2120  0.6809
  611SOL     OW 1873   4.461   3.004   2.935  0.2055 -0.0149 -0.1312
  611SOL    HW1 1874   4.438   3.036   2.848  0.3103  0.3870 -0.0139
  611SOL    HW2 1875   4.466   3.083   2.989  0.4378 -0.2323  0.1686
  612SOL     OW 1876   2.895   1.081   0.393 -0.6041 -0.0179  0.1557
  612SOL    HW1 1877   2.858   1.116   0.474  0.0226 -0.5440  0.6781
  612SOL    HW2 1878   2.848   1.128   0.323 -0.9917  0.6008  0.8171
  613SOL     OW 1879   4.801   2.964   1.822 -0.5266 -0.2598  0.2992
  613SOL    HW1 1880   4.724   2.908   1.829  0.5348 -1.7052  0.9808
  613SOL    HW2 1881   4.809   3.006   1.908 -0.5359 -0.1224  0.2343
  614SOL     OW 1882   4.014   4.072   0.436  0.2348 -0.0829  0.6623
  614SOL    HW1 1883   3.953   4.120   0.491  0.5338  0.5857  0.4240
  614SOL    HW2 1884   4.066   4.140   0.393  1.9492 -0.6402  1.7513
  615SOL     OW 1885   4.616   2.299   2.271 -0.3731  0.0109 -0.2560
  615SOL    HW1 1886   4.523   2.321   2.270 -0.9796 -2.1924 -2.3872
  615SOL    HW2 1887   4.650   2.330   2.188  0.4870 -0.3172 -0.0423
  616SOL     OW 1888   1.917   3.643   2.463  0.1966  0.3711  0.2241
  616SOL    HW1 1889   1.926   3.690   2.381 -0.4148  0.8027  0.3988
  616SOL    HW2 1890   1.958   3.700   2.528  0.6769  0.0324  0.2192
  617SOL     OW 1891   4.330   3.208   1.838 -0.3695  0.5070 -0.2250
  617SOL    HW1 1892   4.346   3.260   1.917  0.7051  0.2438 -0.2420
  617SOL    HW2 1893   4.235   3.205   1.829 -0.5550 -0.1533  1.5389
  618SOL     OW 1894   6.077   3.005   2.696 -0.0898 -0.1350 -0.4222
  618SOL    HW1 1895   6.003   2.975   2.642 -0.4902  1.5184 -0.8517
  618SOL    HW2 1896   6.069   3.100   2.695  2.1126  0.0782 -0.5375
  619SOL     OW 1897   1.954   3.190   2.355 -0.2969  0.5312  0.2624
  619SOL    HW1 1898   1.948   3.123   2.423 -1.5147 -0.2941 -0.6238
  619SOL    HW2 1899   1.974   3.141   2.275 -1.9423  1.1041 -0.5427
  620SOL     OW 1900   4.594   3.577   2.742 -0.6308  0.0065  0.0773
  620SOL    HW1 1901   4.532   3.507   2.763 -0.7742  0.5684  1.7042
  620SOL    HW2 1902   4.576   3.645   2.807  1.8745  0.0738  0.8069
  621SOL     OW 1903   3.289   1.417   0.104 -0.0196  0.8382  0.3887
  621SOL    HW1 1904   3.373   1.419   0.057 -0.4718  0.6377 -0.4321
  621SOL    HW2 1905   3.301   1.350   0.171  0.1926  0.2091 -0.2716
  622SOL     OW 1906   5.278   5.957   2.380 -0.3143  0.1641  0.0153
  622SOL    HW1 1907   5.266   5.981   2.288 -0.2772  3.3944  0.7320
  622SOL    HW2 1908   5.198   5.987   2.423  0.0996 -0.3630  1.2118
  623SOL     OW 1909   4.498   2.767   3.078 -0.0875 -0.2610  0.3580
  623SOL    HW1 1910   4.472   2.843   3.027  2.4968 -0.0989 -0.8691
  623SOL    HW2 1911   4.503   2.798   3.168 -1.0875  0.4227  0.1960
  624SOL     OW 1912   5.776   2.568   2.197  0.6209 -0.3799 -0.2728
  624SOL    HW1 1913   5.801   2.519   2.119  2.1754  0.6370 -0.4461
  624SOL    HW2 1914   5.852   2.621   2.218  0.2470 -0.6277  1.9671
  625SOL     OW 1915   5.909   3.335   2.857  0.5961 -0.1776 -0.4565
  625SOL    HW1 1916   5.837   3.387   2.823  1.0367 -0.8399 -2.5701
  625SOL    HW2 1917   5.930   3.374   2.941 -1.2165  0.9729 -0.4980
  626SOL     OW 1918   5.829   3.777   2.333  0.3544  0.0235 -0.2992
  626SOL    HW1 1919   5.886   3.701   2.319 -0.1397 -0.1682 -1.3621
  626SOL    HW2 1920   5.873   3.827   2.403 -0.0834 -1.9736  1.5114
  627SOL     OW 1921   4.336   2.408   2.281 -0.8650 -0.7385  0.3620
  627SOL    HW1 1922   4.325   2.502   2.291 -2.3473 -0.8672  0.0670
  627SOL    HW2 1923   4.347   2.395   2.186  0.9090 -0.7341  0.5308
  628SOL     OW 1924   3.365   0.222   0.009 -0.1720 -0.2185 -0.9098
  628SOL    HW1 1925   3.309   0.155   0.049  1.4489  0.0199  2.0995
  628SOL    HW2 1926   3.452   0.205   0.046  0.7937  2.1349 -1.9017
  629SOL     OW 1927   6.023   3.555   2.315  0.3888 -0.1696 -0.2880
  629SOL    HW1 1928   6.103   3.556   2.367  2.2940  0.0880 -3.0667
  629SOL    HW2 1929   6.000   3.462   2.307  0.8522 -0.2949 -0.1573
  630SOL     OW 1930   4.790   2.761   2.946  0.2278 -0.3398 -0.0740
  630SOL    HW1 1931   4.695   2.755   2.955  0.3194  0.6678  2.1383
  630SOL    HW2 1932   4.822   2.776   3.035  2.3316  0.9909 -0.9784
  631SOL     OW 1933   5.192   2.247   2.805  0.4185 -0.2576 -0.7454
  631SOL    HW1 1934   5.239   2.176   2.762 -1.1620 -0.9101 -1.4884
  631SOL    HW2 1935   5.124   2.204   2.856 -0.3583  0.6922 -0.9421
  632SOL     OW 1936   5.193   2.782   2.260 -0.4378 -0.0944  0.0485
  632SOL    HW1 1937   5.224   2.860   2.214 -1.2811 -0.2703 -0.8475
  632SOL    HW2 1938   5.105   2.768   2.226 -0.7403 -0.7594  1.0689
  633SOL     OW 1939   4.266   2.718   2.496 -0.1118  0.3609  0.1345
  633SOL    HW1 1940   4.316   2.726   2.578  0.0068 -0.2088  0.1247
  633SOL    HW2 1941   4.315   2.772   2.433 -1.1744  2.2457  0.8544
  634SOL     OW 1942   5.320   2.176   2.243 -0.4740  0.7503 -0.0065
  634SOL    HW1 1943   5.397   2.156   2.296 -0.4721 -0.8000 -0.5432
  634SOL    HW2 1944   5.319   2.271   2.239  1.1189  0.8289  0.4455
  635SOL     OW 1945   5.919   2.986   2.441 -0.5016  0.3506  0.1524
  635SOL    HW1 1946   5.960   3.070   2.423  1.3394 -0.4813  0.2235
  635SOL    HW2 1947   5.827   2.999   2.417 -0.4952  2.6469  1.1357
  636SOL     OW 1948   5.168   6.132   2.758  0.0314  0.6109 -0.5420
  636SOL    HW1 1949   5.158   6.068   2.688  0.3416  1.7621 -1.6575
  636SOL    HW2 1950   5.226   6.089   2.822 -0.4233 -0.5206 -0.8682
  637SOL     OW 1951   4.835   3.605   2.550  0.0395  0.1882  0.2202
  637SOL    HW1 1952   4.915   3.657   2.553  0.4337 -0.4323  0.7857
  637SOL    HW2 1953   4.794   3.619   2.636 -1.2389  1.6846 -0.5910
  638SOL     OW 1954   4.994   4.085   2.976  0.8682  0.3359  0.0207
  638SOL    HW1 1955   5.005   4.034   2.896  1.3079  0.8746 -0.2765
  638SOL    HW2 1956   4.900   4.090   2.990  0.7950  0.1713 -0.4203
  639SOL     OW 1957   6.058   2.783   2.875  0.2116  0.2867  0.2591
  639SOL    HW1 1958   6.059   2.860   2.819 -2.1775  0.1859  0.0015
  639SOL    HW2 1959   6.113   2.719   2.829  1.3821  1.4398 -0.0183
  640SOL     OW 1960   3.135   1.614   0.168 -0.5051  0.0312 -0.1010
  640SOL    HW1 1961   3.199   1.546   0.150 -1.2056 -1.0870  1.3514
  640SOL    HW2 1962   3.057   1.588   0.119  0.1134  1.4633 -1.9823
  641SOL     OW 1963   4.681   2.754   2.276  0.4248 -0.3905 -0.2563
  641SOL    HW1 1964   4.675   2.706   2.193  1.2394  1.5471 -1.5003
  641SOL    HW2 1965   4.720   2.691   2.337  2.3032 -1.0786 -2.0499
  642SOL     OW 1966   5.829   2.657   2.937  0.3154 -0.1081 -0.3144
  642SOL    HW1 1967   5.772   2.695   2.871 -0.8193  1.1787  1.3234
  642SOL    HW2 1968   5.913   2.701   2.925  0.5073 -0.7764 -1.6360
  643SOL     OW 1969   5.446   3.313   2.400  0.2072  0.1121 -0.0348
  643SOL    HW1 1970   5.365   3.265   2.414  0.1999  0.4827  1.3698
  643SOL    HW2 1971   5.422   3.387   2.344 -0.4201  0.1676  0.3005
  644SOL     OW 1972   1.711   2.905   2.183  0.0713 -0.2127  0.0816
  644SOL    HW1 1973   1.693   2.937   2.272  0.1307 -1.0858  0.4177
  644SOL    HW2 1974   1.708   2.810   2.191  1.5674 -0.3419 -0.5386
  645SOL     OW 1975   4.936   3.370   2.448 -0.0952 -0.1470  0.3066
  645SOL    HW1 1976   4.902   3.459   2.439  0.4508  0.0331 -0.0662
  645SOL    HW2 1977   4.902   3.339   2.532  0.0176  0.5566  0.6197
  646SOL     OW 1978   6.216   2.150   2.878  0.0738  0.1231  0.7108
  646SOL    HW1 1979   6.247   2.060   2.884  0.9367  0.4007  0.5694
  646SOL    HW2 1980   6.128   2.148   2.915  0.5123 -0.5683  1.7658
  647SOL     OW 1981   2.160   1.150   0.210  0.3305  0.1267  0.2689
  647SOL    HW1 1982   2.229   1.137   0.146 -0.2246 -0.8030 -0.1549
  647SOL    HW2 1983   2.119   1.233   0.185  0.2668 -0.1161 -0.4294
  648SOL     OW 1984   5.013   3.908   2.774  0.4718  0.7459 -0.6458
  648SOL    HW1 1985   5.008   3.818   2.805  1.6286  1.8296  3.1962
  648SOL    HW2 1986   4.930   3.922   2.727 -0.6935 -1.6766  0.5140
  649SOL     OW 1987   4.637   2.750   2.613  0.3815  0.2647 -0.1800
  649SOL    HW1 1988   4.727   2.718   2.600  0.7561  1.8962 -1.9591
  649SOL    HW2 1989   4.638   2.838   2.577 -1.3432  1.2382  1.9702
  650SOL     OW 1990   5.260   2.215   1.760 -0.6499  0.2389  0.0565
  650SOL    HW1 1991   5.308   2.238   1.840 -0.0602 -3.0676  0.7683
  650SOL    HW2 1992   5.328   2.205   1.694 -1.1908  3.9559 -1.3476
  651SOL     OW 1993   2.904   2.150   0.134  0.9158  0.8638  0.1757
  651SOL    HW1 1994   2.966   2.219   0.157 -1.5243  2.7385  1.6421
  651SOL    HW2 1995   2.868   2.177   0.050  3.5717 -1.4487 -1.8927
  652SOL     OW 1996   3.508   0.412   0.320 -0.2110  0.3680 -0.2700
  652SOL    HW1 1997   3.600   0.441   0.322 -0.6649  1.9718 -1.0178
  652SOL    HW2 1998   3.479   0.434   0.232 -2.1176  2.5972  0.8047
  653SOL     OW 1999   5.177   3.237   2.486 -0.5547  0.3069 -0.0262
  653SOL    HW1 2000   5.134   3.159   2.450 -1.6380  1.4456 -1.3143
  653SOL    HW2 2001   5.113   3.307   2.475  1.3548  1.9579 -1.4000
  654SOL     OW 2002   5.157   2.363   2.487  0.8309 -0.0704 -0.3373
  654SOL    HW1 2003   5.133   2.271   2.476  1.7632 -0.2484 -1.0004
  654SOL    HW2 2004   5.184   2.391   2.400 -3.9296  2.2453 -1.4221
  655SOL     OW 2005   5.128   5.841   2.668  0.0126 -0.8749 -0.4212
  655SOL    HW1 2006   5.183   5.790   2.608 -0.8487 -0.0479 -1.9889
  655SOL    HW2 2007   5.063   5.883   2.611 -0.2626  0.7253  0.9963
  656SOL     OW 2008   5.642   2.804   2.041  0.4494 -0.4162 -0.1487
  656SOL    HW1 2009   5.692   2.731   2.076 -0.8658 -1.7548 -0.9454
  656SOL    HW2 2010   5.582   2.828   2.112 -1.0563 -2.0239 -0.7950
  657SOL     OW 2011   4.236   1.852   1.988  0.1115  0.1290  0.3648
  657SOL    HW1 2012   4.210   1.913   2.057  2.0586  0.6485  0.7025
  657SOL    HW2 2013   4.278   1.780   2.035 -0.2439 -0.4313 -0.1719
  658SOL     OW 2014   5.607   1.835   2.401 -0.0793 -0.4077  0.0616
  658SOL    HW1 2015   5.614   1.886   2.321 -2.1832 -0.7103 -0.3708
  658SOL    HW2 2016   5.657   1.884   2.466 -1.0657  1.5990 -0.6243
  659SOL     OW 2017   3.427   0.570   0.518 -0.2071  0.3794  0.1318
  659SOL    HW1 2018   3.500   0.632   0.526  2.0321 -2.0819  0.0350
  659SOL    HW2 2019   3.441   0.529   0.432 -0.9562 -1.0547  0.6802
  660SOL     OW 2020   5.344   3.412   2.737 -0.2007 -0.3686  0.5512
  660SOL    HW1 2021   5.295   3.368   2.667 -0.9638 -0.4510  1.1200
  660SOL    HW2 2022   5.293   3.394   2.816  0.2746  0.3126  1.0200
  661SOL     OW 2023   4.600   3.369   2.568 -0.1579 -0.4529 -0.0011
  661SOL    HW1 2024   4.686   3.331   2.588  0.2928  0.4042 -0.2437
  661SOL    HW2 2025   4.610   3.462   2.589 -0.4713 -0.0090 -1.6458
  662SOL     OW 2026   5.314   3.842   2.606 -0.2720 -0.3220  0.5497
  662SOL    HW1 2027   5.330   3.867   2.697  0.4684  1.6235 -0.0598
  662SOL    HW2 2028   5.335   3.920   2.555 -2.6645 -0.6855 -1.1600
  663SOL     OW 2029   5.329   2.456   1.972 -0.0780 -0.1221 -0.4534
  663SOL    HW1 2030   5.368   2.524   1.917 -0.5401  0.6227  0.1389
  663SOL    HW2 2031   5.392   2.383   1.967  0.3455  0.2779 -1.2045
  664SOL     OW 2032   4.386   2.738   2.750 -0.3355  0.5061 -0.3437
  664SOL    HW1 2033   4.465   2.758   2.700  0.0577  0.6600  0.3393
  664SOL    HW2 2034   4.397   2.785   2.833 -1.3255  0.8619 -0.4005
  665SOL     OW 2035   2.737   4.172   0.116  0.0489 -0.2548 -0.4392
  665SOL    HW1 2036   2.733   4.264   0.144  2.6947 -0.1749 -0.0106
  665SOL    HW2 2037   2.657   4.159   0.066 -0.7332  2.0924  0.0377
  666SOL     OW 2038   5.139   2.096   2.490 -0.2723  0.0192 -0.4208
  666SOL    HW1 2039   5.224   2.054   2.507 -0.3874 -0.6043 -1.2769
  666SOL    HW2 2040   5.096   2.097   2.575 -0.2801 -1.6930 -0.3594
  667SOL     OW 2041   5.332   2.050   2.696 -0.6327 -0.0891  0.6613
  667SOL    HW1 2042   5.300   1.974   2.743 -0.6611 -0.5430 -0.0811
  667SOL    HW2 2043   5.427   2.048   2.707 -0.5431 -0.7780 -0.1534
  668SOL     OW 2044   5.674   3.064   2.359  0.6520 -0.1948  0.2844
  668SOL    HW1 2045   5.614   3.093   2.290  1.1164 -0.7407 -0.3512
  668SOL    HW2 2046   5.655   3.123   2.432  0.7262  0.9363 -0.5758
  669SOL     OW 2047   3.444   0.486   0.071 -0.5106  0.2154 -0.4339
  669SOL    HW1 2048   3.389   0.418   0.033  0.7738 -1.3539  0.3829
  669SOL    HW2 2049   3.528   0.477   0.024  0.5480 -0.6319  1.4846
  670SOL     OW 2050   1.696   2.641   2.298 -0.0095 -0.1389  0.0050
  670SOL    HW1 2051   1.758   2.571   2.319  1.2698  1.2934  1.2593
  670SOL    HW2 2052   1.656   2.664   2.382 -1.9287 -0.6862 -0.7015
  671SOL     OW 2053   5.090   3.111   1.880  0.0452 -0.0955  0.4398
  671SOL    HW1 2054   5.164   3.162   1.848 -1.6230  2.1028 -0.1369
  671SOL    HW2 2055   5.107   3.022   1.847  1.5605  0.7115 -1.1536
  672SOL     OW 2056   6.064   3.288   2.636  0.4357  0.1641 -0.1012
  672SOL    HW1 2057   6.001   3.322   2.699 -2.0433  0.7980 -2.7287
  672SOL    HW2 2058   6.139   3.348   2.643 -0.5456  1.3304  0.9194
  673SOL     OW 2059   1.537   2.427   1.986  0.0502 -0.1107 -0.0193
  673SOL    HW1 2060   1.547   2.499   1.924 -0.1816  0.1700  0.2660
  673SOL    HW2 2061   1.455   2.385   1.959 -1.4912  1.6255  1.6998
  674SOL     OW 2062   5.155   2.114   2.030  0.4360 -0.1424  0.0393
  674SOL    HW1 2063   5.202   2.058   1.968  0.9353 -0.6572  0.8688
  674SOL    HW2 2064   5.219   2.133   2.098  0.1846  1.2199 -0.0850
  675SOL     OW 2065   5.094   3.276   2.852  0.0180 -0.1142  0.5539
  675SOL    HW1 2066   5.131   3.187   2.852  0.1200 -0.0777  1.4340
  675SOL    HW2 2067   5.034   3.276   2.926  0.1994  0.6309  0.6997
  676SOL     OW 2068   5.635   3.219   2.587 -0.0121 -0.4704 -0.3254
  676SOL    HW1 2069   5.597   3.224   2.675 -0.2737 -1.9937 -0.3256
  676SOL    HW2 2070   5.576   3.272   2.534  1.4996  2.5708  0.7782
  677SOL     OW 2071   3.705   0.674   0.100  0.5369 -0.2191 -0.3334
  677SOL    HW1 2072   3.789   0.704   0.065  0.1635  0.7656 -0.4101
  677SOL    HW2 2073   3.640   0.705   0.037  0.2104 -2.1753 -1.0048
  678SOL     OW 2074   2.995   4.189   0.331 -0.1304  0.1801  0.3191
  678SOL    HW1 2075   2.917   4.204   0.278 -0.7349 -1.8093  0.5452
  678SOL    HW2 2076   3.068   4.198   0.270 -0.7408 -0.8903 -0.6093
  679SOL     OW 2077   4.976   2.804   2.078 -0.9385 -0.2911 -0.0598
  679SOL    HW1 2078   4.910   2.735   2.065 -2.5540  1.1823 -0.1598
  679SOL    HW2 2079   4.935   2.883   2.042  1.6625  0.3722 -1.8355
  680SOL     OW 2080   2.682   0.650   0.155 -0.3273 -0.3754 -0.4194
  680SOL    HW1 2081   2.686   0.735   0.199 -1.6792 -0.7330  0.4447
  680SOL    HW2 2082   2.771   0.637   0.120  0.5830  0.2889  1.5012
  681SOL     OW 2083   3.876   0.193   0.112 -0.1417  0.0005  0.3651
  681SOL    HW1 2084   3.857   0.281   0.144  1.6867 -0.0709  1.8449
  681SOL    HW2 2085   3.971   0.191   0.103 -0.3254 -1.0830 -2.0189
  682SOL     OW 2086   2.283   1.314   0.404 -0.4703  0.0396  0.5192
  682SOL    HW1 2087   2.252   1.244   0.346  1.0580 -0.1078 -0.1490
  682SOL    HW2 2088   2.215   1.381   0.399 -1.3745 -0.8756  0.2192
  683SOL     OW 2089   4.766   3.009   2.117 -0.1304  0.3515 -0.4658
  683SOL    HW1 2090   4.749   2.945   2.186  2.6018 -0.1161 -0.1252
  683SOL    HW2 2091   4.686   3.061   2.113 -1.6556 -1.7183  0.6941
  684SOL     OW 2092   4.603   2.476   2.578  0.4876  0.5567  0.4750
  684SOL    HW1 2093   4.684   2.441   2.540 -0.6032  0.2737 -1.7612
  684SOL    HW2 2094   4.611   2.571   2.569  0.0546  0.4817 -1.0082
  685SOL     OW 2095   6.017   3.265   2.371  0.7695  0.1114  0.4602
  685SOL    HW1 2096   6.109   3.241   2.355  0.5553  0.4417 -1.4112
  685SOL    HW2 2097   6.013   3.280   2.466  2.6270  0.0214  0.5890
  686SOL     OW 2098   5.576   3.493   2.861  0.6027  0.0431 -0.1957
  686SOL    HW1 2099   5.657   3.496   2.810  0.4782 -1.9570 -0.5893
  686SOL    HW2 2100   5.506   3.502   2.796  0.4875  0.3353 -0.0334
  687SOL     OW 2101   1.619   2.003   2.208 -0.0638 -1.1799 -0.2326
  687SOL    HW1 2102   1.582   2.071   2.264 -1.5097 -3.0787  1.2299
  687SOL    HW2 2103   1.555   1.992   2.138 -0.0172 -1.2850 -0.2593
  688SOL     OW 2104   2.489   1.159   0.195  0.2190  0.3657  0.2875
  688SOL    HW1 2105   2.454   1.208   0.269 -0.6817  1.1473 -0.6137
  688SOL    HW2 2106   2.572   1.202   0.175  0.1284  0.6003  0.4099
  689SOL     OW 2107   4.900   2.986   2.820 -0.4332 -0.7453 -0.8800
  689SOL    HW1 2108   4.993   2.997   2.839 -0.2666 -0.4523 -1.8505
  689SOL    HW2 2109   4.875   2.908   2.869  0.3011 -0.7816 -0.5486
  690SOL     OW 2110   5.447   2.672   2.609 -0.7817 -0.3403  0.2478
  690SOL    HW1 2111   5.409   2.591   2.642 -1.7985 -0.6607 -1.6187
  690SOL    HW2 2112   5.457   2.658   2.515  1.5838  0.7136  0.2717
  691SOL     OW 2113   5.580   2.307   1.988 -0.2932  0.0237  0.1647
  691SOL    HW1 2114   5.556   2.225   1.945  0.2845  0.2521 -0.6082
  691SOL    HW2 2115   5.589   2.284   2.081  0.0919 -0.8363 -0.0823
  692SOL     OW 2116   2.485   4.132  -0.033  0.5846 -0.2010 -0.2119
  692SOL    HW1 2117   2.408   4.076  -0.020  2.3259 -3.8632 -3.4029
  692SOL    HW2 2118   2.455   4.201  -0.092 -1.0865  0.9716  1.8870
  693SOL     OW 2119   2.119   0.813   0.442  0.5428  0.1178  0.1669
  693SOL    HW1 2120   2.164   0.869   0.505 -0.2150 -0.7998  1.5701
  693SOL    HW2 2121   2.063   0.873   0.392 -1.6259  0.5054  2.8284
  694SOL     OW 2122   4.954   2.623   2.787  0.1334 -0.1934 -0.1601
  694SOL    HW1 2123   4.931   2.664   2.704  0.7201  1.5240  0.4759
  694SOL    HW2 2124   4.896   2.663   2.852  0.1507 -1.0013  0.3801
  695SOL     OW 2125   4.937   1.943   2.416 -0.1578 -0.2608 -0.1230
  695SOL    HW1 2126   4.853   1.977   2.386 -0.2831  0.8349  1.3601
  695SOL    HW2 2127   4.996   2.018   2.412 -0.4208  0.2657  3.1564
  696SOL     OW 2128   1.881   2.442   2.425 -0.0566  0.7588 -0.0632
  696SOL    HW1 2129   1.879   2.371   2.361 -0.7406  2.3722 -1.9202
  696SOL    HW2 2130   1.836   2.405   2.502  0.9601 -1.2903 -0.3720
  697SOL     OW 2131   5.331   2.450   2.689  0.1597 -0.2797  0.3838
  697SOL    HW1 2132   5.316   2.388   2.760 -0.9986 -1.0849 -0.5183
  697SOL    HW2 2133   5.267   2.425   2.622 -0.1832  1.7408 -0.1050
  698SOL     OW 2134   1.672   1.765   2.300 -0.4226 -0.5440  0.3462
  698SOL    HW1 2135   1.612   1.710   2.251 -0.1439  0.0155 -0.6430
  698SOL    HW2 2136   1.649   1.854   2.275  0.7977 -0.3138 -0.0423
  699SOL     OW 2137   5.407   2.737   1.787 -0.2274  0.2086  0.4278
  699SOL    HW1 2138   5.481   2.787   1.822  1.0170 -0.4122 -1.1598
  699SOL    HW2 2139   5.447   2.657   1.752 -1.4905  0.3070 -1.3776
  700SOL     OW 2140   5.718   3.459   2.368  0.6419 -0.3243  0.1355
  700SOL    HW1 2141   5.768   3.396   2.317  1.4235  1.3319 -1.1986
  700SOL    HW2 2142   5.653   3.495   2.307 -0.3414 -0.3919  1.0935
  701SOL     OW 2143   4.838   3.308   2.714 -0.3182 -0.4285 -0.1583
  701SOL    HW1 2144   4.790   3.342   2.789 -0.1610 -0.4514 -0.0472
  701SOL    HW2 2145   4.907   3.254   2.752 -1.1875 -1.7178 -0.3497
  702SOL     OW 2146   4.411   2.038   2.558 -0.2077  0.3086  0.3023
  702SOL    HW1 2147   4.430   1.958   2.508 -1.3453 -0.1214  0.5124
  702SOL    HW2 2148   4.338   2.078   2.510  0.1025  1.0170  0.4212
  703SOL     OW 2149   2.979   0.232   0.155  0.0014 -0.1079 -0.2879
  703SOL    HW1 2150   2.976   0.225   0.059 -0.3923 -0.4257 -0.2579
  703SOL    HW2 2151   2.888   0.250   0.180 -0.1033 -1.1523  0.1090
  704SOL     OW 2152   4.407   2.551   1.705 -0.1264  0.3627  0.3436
  704SOL    HW1 2153   4.330   2.510   1.665  0.4886 -0.1544 -0.3552
  704SOL    HW2 2154   4.420   2.631   1.655  0.8612 -0.4656 -0.7976
  705SOL     OW 2155   1.982   1.357   0.048 -0.1319 -0.1222  0.4942
  705SOL    HW1 2156   2.028   1.411  -0.015 -0.4567  0.6326  0.8946
  705SOL    HW2 2157   1.915   1.414   0.085  1.1598  0.0100  2.7997
  706SOL     OW 2158   4.763   3.904   2.656 -0.0888  0.0159  0.1889
  706SOL    HW1 2159   4.735   3.911   2.565 -1.9398 -0.4218  0.6964
  706SOL    HW2 2160   4.734   3.985   2.697 -0.7207 -0.4822  0.7474
  707SOL     OW 2161   5.124   2.475   2.946 -0.2332  0.2271  0.1158
  707SOL    HW1 2162   5.105   2.551   2.892  2.7011  2.1615  1.4709
  707SOL    HW2 2163   5.156   2.409   2.885 -2.2975  0.2237 -1.0338
  708SOL     OW 2164   4.226   2.225   2.671  0.3922  0.4119  0.0534
  708SOL    HW1 2165   4.262   2.295   2.617 -1.2667 -0.2209 -2.0101
  708SOL    HW2 2166   4.292   2.156   2.668  0.0837  0.1452 -1.7722
  709SOL     OW 2167   4.882   2.695   2.516 -0.1714  0.3731 -0.4988
  709SOL    HW1 2168   4.930   2.642   2.452 -0.1228  0.3892 -0.4762
  709SOL    HW2 2169   4.933   2.776   2.523  1.5648 -0.7980  1.8086
  710SOL     OW 2170   6.204   2.465   2.924  0.4105  0.4461 -0.9548
  710SOL    HW1 2171   6.247   2.389   2.962 -0.5224  0.0286 -0.6929
  710SOL    HW2 2172   6.122   2.474   2.974 -0.0614  0.8817 -1.7789
  711SOL     OW 2173   4.845   2.318   2.931 -0.3998  0.4348  0.5879
  711SOL    HW1 2174   4.902   2.251   2.893 -0.0276  1.5223 -0.8997
  711SOL    HW2 2175   4.810   2.365   2.855 -0.4679  2.0528  1.5748
  712SOL     OW 2176   5.118   3.697   3.049  0.0727  0.1442  0.1760
  712SOL    HW1 2177   5.124   3.647   2.968  1.1567  1.5037 -0.6246
  712SOL    HW2 2178   5.027   3.725   3.054 -0.2388 -0.8128 -0.0212
  713SOL     OW 2179   5.010   2.280   1.640 -0.1858  0.4575 -0.2828
  713SOL    HW1 2180   5.095   2.263   1.680 -0.9862  1.8314  2.2366
  713SOL    HW2 2181   5.009   2.374   1.626 -1.2769  0.4574 -0.2879
  714SOL     OW 2182   2.655   0.716   0.523  0.0370  0.0238 -0.2332
  714SOL    HW1 2183   2.637   0.764   0.443 -0.2296 -0.4586 -0.4645
  714SOL    HW2 2184   2.722   0.653   0.499 -1.0880 -1.1269 -0.4607
  715SOL     OW 2185   5.577   3.026   2.812  0.0021 -0.0393  0.0178
  715SOL    HW1 2186   5.554   3.100   2.869  0.6177  0.6012 -0.5544
  715SOL    HW2 2187   5.672   3.031   2.804 -0.0588 -0.2376 -0.9094
  716SOL     OW 2188   5.954   2.581   2.568 -0.4236 -0.6223 -0.0260
  716SOL    HW1 2189   5.866   2.573   2.605 -0.9989  0.3165 -1.1110
  716SOL    HW2 2190   6.009   2.605   2.642 -1.4908  0.9828  0.3122
  717SOL     OW 2191   3.746   1.275   0.041  0.0064 -1.0263 -0.2294
  717SOL    HW1 2192   3.730   1.351  -0.015  3.0393 -0.1198 -0.0282
  717SOL    HW2 2193   3.742   1.309   0.130 -2.5968 -2.0164  0.1089
  718SOL     OW 2194   5.081   3.561   2.812 -0.5139 -0.1979  0.8360
  718SOL    HW1 2195   5.069   3.466   2.812  1.9395 -0.5772  0.6351
  718SOL    HW2 2196   5.126   3.580   2.730 -2.4298  1.4258  0.0690
  719SOL     OW 2197   4.492   3.254   3.054 -0.1589 -0.1798  0.2268
  719SOL    HW1 2198   4.560   3.265   3.121 -0.6050  0.6693  0.5499
  719SOL    HW2 2199   4.497   3.333   3.001 -0.2976 -0.5204 -0.3014
  720SOL     OW 2200   2.031   2.492   2.084  0.3061 -0.0029 -0.5661
  720SOL    HW1 2201   1.953   2.438   2.090 -1.5090  2.4755 -0.5044
  720SOL    HW2 2202   2.023   2.539   2.001  0.6085  1.7936  0.3505
  721SOL     OW 2203   6.025   3.644   2.680  0.2558  0.1957 -0.1477
  721SOL    HW1 2204   6.087   3.659   2.608  0.5861 -1.0727 -0.1433
  721SOL    HW2 2205   6.072   3.587   2.741 -0.2947  0.6421  0.7134
  722SOL     OW 2206   5.680   2.785   2.749 -0.2529 -0.2168  0.1209
  722SOL    HW1 2207   5.607   2.741   2.705 -1.2600  1.5963 -0.1241
  722SOL    HW2 2208   5.641   2.865   2.786  1.7697  1.2384 -0.7366
  723SOL     OW 2209   2.705   0.869   0.306  0.1176 -0.5004  0.6650
  723SOL    HW1 2210   2.778   0.885   0.366 -0.1358 -1.9737  1.4143
  723SOL    HW2 2211   2.647   0.944   0.320  0.2090 -0.6523  2.0675
  724SOL     OW 2212   4.911   3.303   1.976 -0.3909  0.2432 -0.2191
  724SOL    HW1 2213   4.910   3.280   1.884  0.4000  0.1562 -0.2088
  724SOL    HW2 2214   4.980   3.249   2.014 -1.1114 -0.1629  0.5442
  725SOL     OW 2215   5.627   3.741   2.981  0.0443 -0.2004  0.0123
  725SOL    HW1 2216   5.586   3.671   2.929  1.2177 -1.3437  0.5810
  725SOL    HW2 2217   5.720   3.722   2.977  0.5221  2.0543 -0.8100
  726SOL     OW 2218   6.311   6.252   3.022 -0.3259 -0.0401  0.3614
  726SOL    HW1 2219   6.267   6.206   2.950  0.8915 -0.7506  0.0436
  726SOL    HW2 2220   6.239   6.283   3.077 -1.2252 -1.5303  0.1040
  727SOL     OW 2221   4.962   2.571   2.292  0.0704 -0.0762 -0.6265
  727SOL    HW1 2222   5.039   2.513   2.286  0.4432  0.3938 -0.4545
  727SOL    HW2 2223   4.924   2.568   2.204  1.7282  1.6194 -1.4772
  728SOL     OW 2224   5.454   3.196   2.004  0.6708  0.2302  0.1872
  728SOL    HW1 2225   5.374   3.166   2.046 -0.5992  1.5714 -1.1550
  728SOL    HW2 2226   5.441   3.176   1.911  1.2966  1.6707 -0.2308
  729SOL     OW 2227   2.914   0.586   0.047 -0.1918 -0.0952  0.0342
  729SOL    HW1 2228   2.986   0.636   0.086 -0.6653  2.0359 -1.6368
  729SOL    HW2 2229   2.956   0.507   0.012  0.8189 -0.2810  1.5812
  730SOL     OW 2230   4.793   2.599   2.026  0.6333  0.1333 -1.2302
  730SOL    HW1 2231   4.826   2.509   2.024  0.3234 -0.0073 -0.5014
  730SOL    HW2 2232   4.716   2.598   1.970 -0.4220 -0.5097  0.1751
  731SOL     OW 2233   5.744   3.157   1.943  0.4800  0.1530 -0.8185
  731SOL    HW1 2234   5.661   3.110   1.944  0.1021  0.7787  1.0037
  731SOL    HW2 2235   5.779   3.141   1.856 -0.5202 -1.9139 -0.9104
  732SOL     OW 2236   3.062   0.735   0.412 -0.1643 -0.0682 -0.3246
  732SOL    HW1 2237   3.057   0.643   0.438 -0.0568 -0.2603 -0.9745
  732SOL    HW2 2238   3.079   0.732   0.318 -3.4991  0.6143 -1.0574
  733SOL     OW 2239   3.757   1.011   0.148 -0.4156 -0.1918 -0.3740
  733SOL    HW1 2240   3.755   1.098   0.106  2.9426  0.2671  0.1769
  733SOL    HW2 2241   3.683   1.014   0.209 -0.1094  2.5123  0.0226
  734SOL     OW 2242   5.530   2.589   2.332 -0.4152 -0.5875 -0.1401
  734SOL    HW1 2243   5.612   2.587   2.283 -0.8538 -2.5616 -0.9333
  734SOL    HW2 2244   5.503   2.681   2.332  0.9161 -0.1657 -1.3795
  735SOL     OW 2245   5.597   2.032   2.754  0.1494 -0.1234  0.0911
  735SOL    HW1 2246   5.590   2.127   2.745  0.7699  0.1520  2.0435
  735SOL    HW2 2247   5.672   2.008   2.701 -0.7384  0.2864 -1.3894
  736SOL     OW 2248   4.346   3.433   2.439 -0.0563 -0.0370 -0.4063
  736SOL    HW1 2249   4.429   3.392   2.463 -0.3350 -0.9098 -0.9023
  736SOL    HW2 2250   4.282   3.362   2.442 -1.6294  1.2364  3.7674
  737SOL     OW 2251   3.852   4.641   0.674  0.3184  0.5808 -0.8163
  737SOL    HW1 2252   3.919   4.608   0.615  0.7238  1.5601 -0.9250
  737SOL    HW2 2253   3.769   4.621   0.630  0.2612 -3.4150  0.6887
  738SOL     OW 2254   4.505   3.117   2.122 -0.0739 -0.4948 -0.5095
  738SOL    HW1 2255   4.491   3.207   2.094 -0.1511 -0.7621 -1.3596
  738SOL    HW2 2256   4.419   3.087   2.152 -0.0931 -0.3526 -0.4267
  739SOL     OW 2257   2.580   0.252   0.095  0.2794  0.0149 -0.2486
  739SOL    HW1 2258   2.504   0.291   0.051  0.3003  1.0585  0.6051
  739SOL    HW2 2259   2.629   0.210   0.024 -1.0693 -0.6719 -0.8233
  740SOL     OW 2260   4.686   2.287   1.981  0.2985  0.3637  0.9598
  740SOL    HW1 2261   4.607   2.232   1.972 -0.7170  1.7629  0.9771
  740SOL    HW2 2262   4.686   2.341   1.903  1.0283  0.6594  1.1624
  741SOL     OW 2263   3.371   0.708   0.211  0.3938 -0.0380  0.0024
  741SOL    HW1 2264   3.419   0.641   0.163 -0.8679 -0.3265 -0.9159
  741SOL    HW2 2265   3.433   0.741   0.275  2.0227  0.0972 -1.5710
  742SOL     OW 2266   4.193   1.787   2.373 -0.4590  0.1833 -0.0507
  742SOL    HW1 2267   4.154   1.859   2.324 -2.1513 -0.8648 -0.3376
  742SOL    HW2 2268   4.118   1.735   2.402  0.6812 -1.1237  0.6678
  743SOL     OW 2269   5.504   2.860   2.282  0.8612 -0.1840  0.0385
  743SOL    HW1 2270   5.417   2.899   2.289  0.0246 -1.6614 -1.4703
  743SOL    HW2 2271   5.560   2.915   2.338 -1.0221  0.7819  1.0530
  744SOL     OW 2272   2.311   0.340   0.044  0.0864  0.1216  0.0288
  744SOL    HW1 2273   2.306   0.435   0.032 -1.0821  0.1110  0.3040
  744SOL    HW2 2274   2.261   0.304  -0.030 -2.4641 -0.1320  1.7632
  745SOL     OW 2275   5.355   3.940   2.851  0.1942  0.2231 -0.5129
  745SOL    HW1 2276   5.433   3.984   2.883 -0.8917  2.1291 -0.3505
  745SOL    HW2 2277   5.291   3.950   2.921 -0.7140  0.1737 -1.3046
  746SOL     OW 2278   3.862   0.719   0.430 -0.1809  0.2023  0.2511
  746SOL    HW1 2279   3.880   0.813   0.434 -0.5281  0.4184 -1.8255
  746SOL    HW2 2280   3.775   0.713   0.390 -0.2271 -1.0043  0.5001
  747SOL     OW 2281   5.590   2.329   2.281  0.4677  0.5218 -0.0948
  747SOL    HW1 2282   5.655   2.301   2.344  1.1699  0.4892 -0.8142
  747SOL    HW2 2283   5.552   2.409   2.318  0.0206 -0.1405  0.9164
  748SOL     OW 2284   4.842   3.058   2.551  0.0314 -0.1515 -0.3129
  748SOL    HW1 2285   4.845   3.063   2.647 -0.4730 -1.0704 -0.2399
  748SOL    HW2 2286   4.929   3.029   2.525 -0.0714 -0.6916 -0.0698
  749SOL     OW 2287   3.939   0.983   0.478 -0.2947  0.5331 -0.1622
  749SOL    HW1 2288   3.882   1.057   0.499  0.0613  0.1650  2.4258
  749SOL    HW2 2289   4.022   1.004   0.521  0.6584 -0.2152 -1.5544
  750SOL     OW 2290   5.539   3.469   2.104  0.3063 -0.3225 -0.1694
  750SOL    HW1 2291   5.526   3.388   2.056  0.4108 -0.5258  0.1473
  750SOL    HW2 2292   5.452   3.489   2.141 -0.1015  0.5095 -1.4825
  751SOL     OW 2293   5.353   2.948   2.657  0.0114  0.0410 -0.1298
  751SOL    HW1 2294   5.376   2.855   2.666 -1.0036 -0.1225  0.9996
  751SOL    HW2 2295   5.437   2.993   2.656  0.4968 -0.8063  0.5470
  752SOL     OW 2296   5.225   3.050   2.149  0.3292  0.1747  0.5871
  752SOL    HW1 2297   5.145   3.072   2.198  0.7221  0.7027  1.0040
  752SOL    HW2 2298   5.197   3.050   2.057 -0.1363  0.4223  0.7251
  753SOL     OW 2299   1.955   3.808   2.683  0.4531 -0.2616 -0.2757
  753SOL    HW1 2300   1.967   3.896   2.648  2.1982 -0.1395  0.5412
  753SOL    HW2 2301   1.939   3.820   2.776 -0.7311 -0.7519 -0.4020
  754SOL     OW 2302   4.369   3.169   2.617  0.8791  0.0525 -0.4799
  754SOL    HW1 2303   4.459   3.136   2.616  0.4530 -1.1444 -0.9318
  754SOL    HW2 2304   4.333   3.144   2.533  0.3273  1.1738 -0.5932
  755SOL     OW 2305   4.132   4.301   0.320 -0.1559  0.1988 -0.6124
  755SOL    HW1 2306   4.089   4.274   0.239 -1.7785  2.1650 -0.4775
  755SOL    HW2 2307   4.193   4.369   0.293 -1.2220  1.3740 -0.1345
  756SOL     OW 2308   5.238   2.470   2.250  0.2851  0.4487  0.1403
  756SOL    HW1 2309   5.247   2.502   2.160 -1.2119  2.6160  0.6696
  756SOL    HW2 2310   5.298   2.524   2.301  1.4740 -1.0884  0.4271
  757SOL     OW 2311   5.863   3.055   2.953  0.4104  0.0836 -0.3790
  757SOL    HW1 2312   5.860   3.145   2.922 -1.1352  0.2326  0.0964
  757SOL    HW2 2313   5.873   3.063   3.048  1.3072 -0.2733 -0.4393
  758SOL     OW 2314   4.604   2.180   2.644 -0.4784 -0.2196 -0.2052
  758SOL    HW1 2315   4.579   2.269   2.618 -2.0162 -0.7085 -0.4998
  758SOL    HW2 2316   4.541   2.124   2.599 -1.1542 -1.2978  1.9775
  759SOL     OW 2317   4.745   4.004   1.866  0.4255  0.4959 -0.1619
  759SOL    HW1 2318   4.761   3.916   1.833  1.2928 -0.2817  2.0911
  759SOL    HW2 2319   4.658   4.026   1.835 -0.2350 -1.5995  0.0471
  760SOL     OW 2320   3.627   0.080   0.048 -0.0566 -0.5558  0.0473
  760SOL    HW1 2321   3.586   0.018   0.109 -1.7725  0.2963 -0.1911
  760SOL    HW2 2322   3.695   0.122   0.101 -1.5227  0.1853  1.4378
  761SOL     OW 2323   3.477   4.177   0.129  0.1629  0.1135 -0.6792
  761SOL    HW1 2324   3.417   4.152   0.058 -0.4962  1.4377 -0.6376
  761SOL    HW2 2325   3.419   4.202   0.201  0.8183 -0.4434  0.0571
  762SOL     OW 2326   4.693   3.841   2.386 -0.5874  0.1618 -0.1602
  762SOL    HW1 2327   4.705   3.911   2.322  1.4826 -0.3369 -0.3710
  762SOL    HW2 2328   4.762   3.778   2.366 -2.0832 -1.7165  0.3472
  763SOL     OW 2329   2.693   1.624   0.037 -0.2541 -0.3342  0.3366
  763SOL    HW1 2330   2.677   1.716   0.059  0.7335 -0.0322 -0.1487
  763SOL    HW2 2331   2.628   1.604  -0.030  0.6298  0.5544 -0.8322
  764SOL     OW 2332   5.659   1.949   2.129 -0.0791 -0.2688  0.1638
  764SOL    HW1 2333   5.662   1.871   2.074 -1.0654 -0.0334 -0.2483
  764SOL    HW2 2334   5.608   2.012   2.079  1.6042  1.0419  0.0196
  765SOL     OW 2335   5.979   2.130   2.452  0.3727 -0.6500 -0.1135
  765SOL    HW1 2336   6.040   2.142   2.525  2.0879 -1.0259 -1.4174
  765SOL    HW2 2337   5.941   2.216   2.437  0.0575 -0.5514  1.1387
  766SOL     OW 2338   5.968   2.083   2.959 -0.7934 -0.2667 -0.0887
  766SOL    HW1 2339   5.948   1.990   2.947 -2.0222 -0.1034  0.5642
  766SOL    HW2 2340   5.895   2.117   3.011  0.5658  0.6558  1.3099
  767SOL     OW 2341   4.315   2.687   2.175 -0.1476 -0.6876  0.0582
  767SOL    HW1 2342   4.224   2.660   2.165 -0.1780 -0.8576  0.7105
  767SOL    HW2 2343   4.355   2.668   2.090 -0.8284 -0.1525 -0.3993
  768SOL     OW 2344   4.998   3.152   2.270  0.0042  0.3104  0.6018
  768SOL    HW1 2345   4.910   3.118   2.254  0.1207  0.8818 -1.4578
  768SOL    HW2 2346   4.983   3.237   2.312 -0.4719  0.6810 -0.2865
  769SOL     OW 2347   4.218   3.741   1.006 -0.3905  0.4910  0.8166
  769SOL    HW1 2348   4.304   3.699   1.004 -0.3320  0.6092 -0.3034
  769SOL    HW2 2349   4.235   3.832   0.982 -0.8564  0.4231  0.1766
  770SOL     OW 2350   4.491   3.801   0.832 -0.4869  0.4296 -0.2643
  770SOL    HW1 2351   4.464   3.710   0.844  2.6587 -0.3941  1.8775
  770SOL    HW2 2352   4.410   3.851   0.835 -2.5458 -2.3116 -3.1743
  771SOL     OW 2353   4.159   6.160   2.651  0.0144  0.3472 -0.1634
  771SOL    HW1 2354   4.134   6.084   2.704  0.2769 -0.1454 -0.7304
  771SOL    HW2 2355   4.196   6.122   2.571 -1.3646  1.0740 -1.1852
  772SOL     OW 2356   4.963   4.191   1.702 -0.2442 -0.1905 -0.1914
  772SOL    HW1 2357   4.906   4.170   1.628  1.1134  0.0415 -1.3445
  772SOL    HW2 2358   4.908   4.179   1.779 -1.1447 -2.3817 -1.1048
  773SOL     OW 2359   5.327   3.764   1.570 -0.0742  0.0709  0.1453
  773SOL    HW1 2360   5.308   3.674   1.597 -1.2680  0.4692  0.6917
  773SOL    HW2 2361   5.263   3.817   1.617 -0.0506  1.1124 -0.9526
  774SOL     OW 2362   4.586   4.511   0.373  0.4454 -0.2626  0.0488
  774SOL    HW1 2363   4.528   4.546   0.305  0.8591 -1.1795 -0.8034
  774SOL    HW2 2364   4.646   4.583   0.393 -0.2740  0.3228  0.1323
  775SOL     OW 2365   1.246   3.788   0.447  0.5338 -0.6647  0.3070
  775SOL    HW1 2366   1.244   3.747   0.533  0.1771 -1.5611 -0.1229
  775SOL    HW2 2367   1.162   3.834   0.440  0.8555  0.0099  0.7098
  776SOL     OW 2368   5.045   3.926   1.974 -0.0147  0.2489  0.4429
  776SOL    HW1 2369   5.108   3.994   1.998 -0.7243  1.4050 -0.7929
  776SOL    HW2 2370   4.960   3.970   1.980 -0.4547 -0.4002 -0.7686
  777SOL     OW 2371   0.973   3.459   0.788 -0.0160  0.2422 -0.1987
  777SOL    HW1 2372   1.038   3.482   0.722 -0.5623 -0.9054 -1.1576
  777SOL    HW2 2373   0.975   3.533   0.849  0.0340  1.6497 -1.8299
  778SOL     OW 2374   1.196   4.363   1.359 -0.3007  0.1957  0.3712
  778SOL    HW1 2375   1.184   4.379   1.453 -0.1406 -2.7669  0.9995
  778SOL    HW2 2376   1.190   4.268   1.350 -1.0192  0.4255 -2.7529
  779SOL     OW 2377   1.156   3.803   1.007 -0.2008  0.4674 -0.2233
  779SOL    HW1 2378   1.182   3.733   1.066 -0.0637  0.2455 -0.5431
  779SOL    HW2 2379   1.063   3.788   0.991 -0.3185  0.7235  0.1941
  780SOL     OW 2380   4.422   4.534   0.594 -0.0910  0.4867 -0.3012
  780SOL    HW1 2381   4.409   4.446   0.630  0.0195  0.8419  0.6481
  780SOL    HW2 2382   4.470   4.520   0.512  1.2562 -0.2433  0.5765
  781SOL     OW 2383   0.872   4.285   0.088  0.4765  0.8700 -0.9887
  781SOL    HW1 2384   0.787   4.247   0.110  1.0027 -0.2127 -0.7884
  781SOL    HW2 2385   0.933   4.212   0.092  1.6936  1.9041  0.3499
  782SOL     OW 2386   1.326   4.299   1.603 -0.6528 -0.2617  0.0952
  782SOL    HW1 2387   1.422   4.306   1.597 -0.6220 -1.5431 -2.1204
  782SOL    HW2 2388   1.311   4.224   1.659 -0.3576 -0.0867  0.4119
  783SOL     OW 2389   0.973   3.862   0.407 -0.5256  0.0706 -0.0963
  783SOL    HW1 2390   0.881   3.861   0.434 -0.6377 -1.2117 -0.4676
  783SOL    HW2 2391   0.997   3.770   0.397  0.4698  0.4042 -1.1154
  784SOL     OW 2392   1.724   4.531   0.574 -0.3289 -0.2635 -1.1741
  784SOL    HW1 2393   1.744   4.618   0.607 -0.5527 -0.8456  0.6266
  784SOL    HW2 2394   1.802   4.504   0.526  0.3055  0.3724 -0.5214
  785SOL     OW 2395   4.769   4.118   1.528  0.1016  1.0326  0.2670
  785SOL    HW1 2396   4.678   4.147   1.524  0.0773  1.0333  0.7393
  785SOL    HW2 2397   4.763   4.023   1.540  0.1480  1.1278  1.0936
  786SOL     OW 2398   1.634   3.654   0.359 -0.0859 -0.5357 -0.0828
  786SOL    HW1 2399   1.680   3.735   0.382 -0.9676  0.0300 -0.2697
  786SOL    HW2 2400   1.697   3.584   0.381  0.5989  0.1778  0.2969
  787SOL     OW 2401   1.583   3.521   1.881  0.0424 -0.3338  0.0255
  787SOL    HW1 2402   1.539   3.446   1.923 -1.1346  0.1489 -0.2912
  787SOL    HW2 2403   1.511   3.569   1.839  0.9529  0.2488 -0.8980
  788SOL     OW 2404   0.948   3.541   0.358  0.0078  0.1362  0.1857
  788SOL    HW1 2405   0.931   3.556   0.265 -0.0505 -1.0451 -0.0044
  788SOL    HW2 2406   0.875   3.485   0.387  0.3918 -0.0619  0.7779
  789SOL     OW 2407   5.274   4.056   1.955 -0.5645 -0.5010 -0.3041
  789SOL    HW1 2408   5.341   3.993   1.982 -0.5325 -0.4725 -0.3153
  789SOL    HW2 2409   5.308   4.141   1.984 -0.1538 -0.3743 -1.1216
  790SOL     OW 2410   1.534   3.996   1.321 -0.0627  0.1303  0.7037
  790SOL    HW1 2411   1.490   3.954   1.247  0.6084  1.2614 -0.3961
  790SOL    HW2 2412   1.508   3.945   1.397 -0.7769 -1.0890 -0.3143
  791SOL     OW 2413   0.404   3.506   0.268  0.0356  0.1396 -0.2497
  791SOL    HW1 2414   0.371   3.446   0.335  0.6722  1.0377  0.9172
  791SOL    HW2 2415   0.462   3.453   0.214 -0.8691 -0.7147 -0.4137
  792SOL     OW 2416   4.345   3.674   0.171 -0.0727  0.0999  0.3163
  792SOL    HW1 2417   4.327   3.765   0.148 -0.0687 -0.0659 -0.3729
  792SOL    HW2 2418   4.291   3.623   0.110  1.0684 -0.3748 -0.3385
  793SOL     OW 2419   1.321   4.048   0.738  0.3598 -0.1847 -0.1466
  793SOL    HW1 2420   1.396   4.074   0.792 -1.6732  0.7517  2.4305
  793SOL    HW2 2421   1.351   4.062   0.648  3.1188  0.5359  0.7689
  794SOL     OW 2422   4.292   4.273   1.361 -0.1652 -0.0088  0.1044
  794SOL    HW1 2423   4.257   4.350   1.404 -1.6069 -0.7155  0.2845
  794SOL    HW2 2424   4.364   4.305   1.307  0.8945  1.0739  2.0541
  795SOL     OW 2425   5.095   3.911   1.176 -0.1810  0.4172  0.2592
  795SOL    HW1 2426   5.150   3.848   1.222 -1.1197 -0.0279  0.8022
  795SOL    HW2 2427   5.057   3.862   1.103 -0.2710  0.5814  0.1942
  796SOL     OW 2428   0.776   3.683   0.735  0.3388  0.2610  0.3164
  796SOL    HW1 2429   0.722   3.605   0.724  1.2580 -0.3400 -0.0342
  796SOL    HW2 2430   0.761   3.734   0.656 -2.5696  1.9557  1.7744
  797SOL     OW 2431   1.787   4.453   0.870  0.5914 -0.4046  0.1846
  797SOL    HW1 2432   1.751   4.537   0.840 -2.2273 -1.3517  0.5589
  797SOL    HW2 2433   1.878   4.472   0.891 -0.1115  2.7479  0.9612
  798SOL     OW 2434   2.389   5.948   2.986 -0.2410  0.0594 -0.5919
  798SOL    HW1 2435   2.473   5.954   3.031  0.2344 -0.2617 -1.4202
  798SOL    HW2 2436   2.331   6.005   3.036  0.0824 -0.8021  0.8401
  799SOL     OW 2437   5.321   3.551   2.231 -0.1967 -0.0144  0.1620
  799SOL    HW1 2438   5.225   3.553   2.241 -0.1457  0.3941  0.6146
  799SOL    HW2 2439   5.346   3.642   2.218  0.2009 -0.0280  0.7812
  800SOL     OW 2440   1.254   3.788   0.746  0.1666 -0.3173  0.6027
  800SOL    HW1 2441   1.282   3.879   0.736 -0.9615 -0.0731 -0.5754
  800SOL    HW2 2442   1.188   3.791   0.816  0.0434 -0.2199  0.4808
  801SOL     OW 2443   0.643   3.867   0.912  0.4345  0.2211 -0.0656
  801SOL    HW1 2444   0.652   3.961   0.899  1.0506  0.4085  1.5854
  801SOL    HW2 2445   0.705   3.828   0.851 -1.5661  0.7099 -2.6176
  802SOL     OW 2446   5.675   4.006   2.180  0.1825  0.3167  0.2617
  802SOL    HW1 2447   5.657   3.938   2.245 -1.0164 -0.4306 -0.8310
  802SOL    HW2 2448   5.770   4.000   2.166  0.6162  0.9785  2.4233
  803SOL     OW 2449   4.528   3.579   1.797  0.1137 -0.3865  0.4185
  803SOL    HW1 2450   4.489   3.607   1.880  1.8108 -1.2317  1.5895
  803SOL    HW2 2451   4.556   3.489   1.814 -0.3436 -0.9093 -1.4209
  804SOL     OW 2452   4.839   3.736   1.307  0.3827 -0.1065 -0.1040
  804SOL    HW1 2453   4.787   3.765   1.381 -1.1130 -0.4670 -0.9671
  804SOL    HW2 2454   4.895   3.666   1.342 -0.3536 -0.3230  0.6568
  805SOL     OW 2455   0.687   4.178   0.735  0.3253 -0.3354 -0.0458
  805SOL    HW1 2456   0.619   4.212   0.677  1.3874 -0.5563 -1.4924
  805SOL    HW2 2457   0.760   4.157   0.676  1.5313 -0.3929  1.4072
  806SOL     OW 2458   4.701   3.922   0.761 -0.0425 -0.1572  0.3879
  806SOL    HW1 2459   4.622   3.889   0.803  0.1580 -0.3121  0.6455
  806SOL    HW2 2460   4.767   3.855   0.779  1.4838  2.0717  4.3235
  807SOL     OW 2461   1.453   4.047   0.491  0.1265  0.0683  0.5959
  807SOL    HW1 2462   1.509   4.112   0.449 -0.5450  0.9269  1.0049
  807SOL    HW2 2463   1.504   3.966   0.488  1.7629  1.0094  1.7628
  808SOL     OW 2464   3.936   6.141   2.977 -0.6484  0.8925 -0.0425
  808SOL    HW1 2465   3.971   6.078   2.914  0.1805 -0.7429  1.9384
  808SOL    HW2 2466   3.885   6.088   3.038 -0.0361  2.1499  1.6303
  809SOL     OW 2467   4.574   3.732   1.161  0.0371 -0.3632  0.1069
  809SOL    HW1 2468   4.569   3.656   1.220 -2.1231 -2.1383 -2.1502
  809SOL    HW2 2469   4.660   3.723   1.120  0.7030 -0.2883  1.4249
  810SOL     OW 2470   1.199   3.917   1.614  0.1395  0.0884  0.1491
  810SOL    HW1 2471   1.163   3.995   1.571  0.7528  0.1353 -0.2849
  810SOL    HW2 2472   1.134   3.849   1.597  0.4746  0.0440 -1.0744
  811SOL     OW 2473   0.962   3.722   1.274 -0.0191 -0.6024 -0.4238
  811SOL    HW1 2474   0.960   3.743   1.367 -0.5132  0.1803 -0.6028
  811SOL    HW2 2475   1.050   3.686   1.260  0.5901  0.6058  0.0734
  812SOL     OW 2476   4.376   4.301   0.725  0.2193 -0.7371 -0.3815
  812SOL    HW1 2477   4.297   4.259   0.760 -0.1091 -0.3257 -0.6215
  812SOL    HW2 2478   4.425   4.328   0.803  0.2384 -1.1911 -0.2289
  813SOL     OW 2479   4.501   4.183   1.507 -0.0975  0.2415  0.1302
  813SOL    HW1 2480   4.408   4.190   1.486 -0.7094  0.7288  2.7048
  813SOL    HW2 2481   4.539   4.265   1.475 -1.2850  1.6790  2.1834
  814SOL     OW 2482   0.332   4.398   0.133 -0.2216  0.3667  0.1790
  814SOL    HW1 2483   0.401   4.456   0.099 -0.7044  0.7615 -0.1310
  814SOL    HW2 2484   0.364   4.372   0.219  1.5512 -1.5367 -0.9568
  815SOL     OW 2485   1.413   4.215   1.191  0.7692 -0.1180  0.3202
  815SOL    HW1 2486   1.341   4.154   1.174  0.4584  0.0965  0.8388
  815SOL    HW2 2487   1.457   4.181   1.268  1.2406 -0.2590 -0.0095
  816SOL     OW 2488   0.981   4.226   0.987  0.0201  0.0066 -0.0722
  816SOL    HW1 2489   0.937   4.306   0.957 -0.6413  0.0463  0.9259
  816SOL    HW2 2490   1.023   4.190   0.909 -1.7679 -0.0050 -1.0872
  817SOL     OW 2491   1.017   4.032   0.172  1.0446  0.6809  0.2961
  817SOL    HW1 2492   1.065   3.983   0.106  0.5793 -1.5565  1.5386
  817SOL    HW2 2493   1.027   3.982   0.252 -0.0673  2.2591  1.4850
  818SOL     OW 2494   1.728   3.903   0.409  0.1936 -0.3926  0.3712
  818SOL    HW1 2495   1.783   3.909   0.487 -0.4534 -1.1466  0.8959
  818SOL    HW2 2496   1.708   3.994   0.386  1.9459 -0.0740 -0.0586
  819SOL     OW 2497   1.774   3.994   0.778 -0.0990  0.5204 -0.4721
  819SOL    HW1 2498   1.731   3.910   0.766 -1.1910  1.2868 -2.3949
  819SOL    HW2 2499   1.734   4.031   0.857 -0.9353 -0.0010 -0.6475
  820SOL     OW 2500   0.395   4.246   0.354  0.6334  0.2825  0.0852
  820SOL    HW1 2501   0.373   4.300   0.430 -0.3672  0.0026  0.0156
  820SOL    HW2 2502   0.439   4.170   0.390  1.8302  1.0137  0.2083
  821SOL     OW 2503   1.184   3.553   1.224 -0.4589 -0.5741  0.1329
  821SOL    HW1 2504   1.109   3.502   1.192  0.9174 -1.3540 -2.1507
  821SOL    HW2 2505   1.211   3.509   1.304 -1.1759 -1.5843 -0.1621
  822SOL     OW 2506   1.684   4.067   1.039 -0.2334  0.3719 -0.0155
  822SOL    HW1 2507   1.665   4.121   1.116 -1.6058  0.1275 -0.1702
  822SOL    HW2 2508   1.719   3.985   1.075  1.1225  1.0259  0.2432
  823SOL     OW 2509   4.781   3.738   1.782  0.2008 -0.3088 -0.3361
  823SOL    HW1 2510   4.861   3.695   1.810  0.3622  0.0829 -0.1782
  823SOL    HW2 2511   4.715   3.669   1.780  0.5642 -0.6485 -0.5627
  824SOL     OW 2512   4.333   3.919   0.097 -0.2472 -0.1665 -0.3289
  824SOL    HW1 2513   4.350   3.981   0.168 -2.6379  0.4961 -0.2321
  824SOL    HW2 2514   4.274   3.965   0.038 -0.3177 -1.5908 -1.4438
  825SOL     OW 2515   4.246   3.904   0.433  0.1690 -0.5769  0.2367
  825SOL    HW1 2516   4.303   3.955   0.491 -1.0501  0.2763  0.7159
  825SOL    HW2 2517   4.171   3.960   0.417 -0.8419 -1.9117  0.0995
  826SOL     OW 2518   5.229   4.131   1.717 -0.1801  0.5844  0.1274
  826SOL    HW1 2519   5.138   4.158   1.709  0.1125  1.2658 -1.2767
  826SOL    HW2 2520   5.237   4.096   1.806 -2.3621 -1.6275 -0.4468
  827SOL     OW 2521   1.450   3.572   0.718  0.4130 -0.1653 -0.4106
  827SOL    HW1 2522   1.389   3.644   0.733  1.0562  0.5478 -1.0962
  827SOL    HW2 2523   1.406   3.516   0.653  0.1665 -0.0681 -0.3269
  828SOL     OW 2524   1.642   3.726   1.681 -0.4380 -0.0551 -0.4034
  828SOL    HW1 2525   1.618   3.807   1.637 -1.2922  0.1266  0.3643
  828SOL    HW2 2526   1.706   3.752   1.747 -2.5129  0.4317  1.5066
  829SOL     OW 2527   2.003   4.037   1.260  0.4644 -0.0611  0.3393
  829SOL    HW1 2528   1.927   4.088   1.290 -0.2625 -0.6521 -0.4465
  829SOL    HW2 2529   1.965   3.962   1.216  1.5051  0.2683 -1.1720
  830SOL     OW 2530   0.682   3.452   0.439 -0.6053  0.4015 -0.8156
  830SOL    HW1 2531   0.636   3.423   0.361 -0.4375 -1.3998 -0.2829
  830SOL    HW2 2532   0.624   3.518   0.478 -0.8315  1.0835 -2.2581
  831SOL     OW 2533   4.737   4.154   0.970  0.2130  0.4415  0.4953
  831SOL    HW1 2534   4.741   4.130   1.063  1.6444  0.0959  0.3601
  831SOL    HW2 2535   4.745   4.071   0.924 -0.6159  0.6008  0.0515
  832SOL     OW 2536   1.481   3.654   1.364 -0.0862  0.3681  0.0801
  832SOL    HW1 2537   1.451   3.681   1.277  0.1376 -0.7613 -0.3735
  832SOL    HW2 2538   1.405   3.608   1.401 -0.2310  0.9737  0.5555
  833SOL     OW 2539   5.101   3.797   1.742  0.0801 -0.0524  0.0775
  833SOL    HW1 2540   5.139   3.733   1.803  1.6360  1.2278  0.5401
  833SOL    HW2 2541   5.067   3.866   1.799  0.7894  0.7544 -0.4477
  834SOL     OW 2542   3.796   2.130   2.970 -0.1324 -0.1245  0.1630
  834SOL    HW1 2543   3.720   2.099   2.921  0.9651 -2.1938 -0.3648
  834SOL    HW2 2544   3.850   2.052   2.982  1.3333  1.0354  1.5953
  835SOL     OW 2545   1.503   4.228   0.881 -0.0574 -0.3612 -0.4060
  835SOL    HW1 2546   1.441   4.271   0.941  0.9388  0.7903 -0.1665
  835SOL    HW2 2547   1.558   4.175   0.938  0.6871  0.4880 -0.3054
  836SOL     OW 2548   1.801   4.243   0.658  0.4167  0.0985  0.4063
  836SOL    HW1 2549   1.878   4.233   0.602 -1.0816 -0.0732 -1.7532
  836SOL    HW2 2550   1.797   4.161   0.708  2.4384  0.7312  1.7186
  837SOL     OW 2551   4.667   4.149   2.757  0.1392  0.3383 -0.3182
  837SOL    HW1 2552   4.706   4.139   2.844  0.2224 -0.2893 -0.4219
  837SOL    HW2 2553   4.574   4.128   2.770  0.3029 -0.5520 -0.5264
  838SOL     OW 2554   4.290   4.382   2.264 -0.2263 -0.9177  0.1767
  838SOL    HW1 2555   4.270   4.311   2.325 -1.8661 -0.4615  0.2113
  838SOL    HW2 2556   4.337   4.339   2.192  0.0741 -1.7701  0.8624
  839SOL     OW 2557   1.549   3.866   1.958  0.5125  0.1691  0.1584
  839SOL    HW1 2558   1.469   3.818   1.978 -0.6870  1.9903 -0.0038
  839SOL    HW2 2559   1.619   3.812   1.994 -0.6397 -2.0966 -0.7780
  840SOL     OW 2560   1.778   4.164   2.226 -0.5360 -0.0708 -0.0298
  840SOL    HW1 2561   1.807   4.094   2.167 -1.0909  0.4792 -0.9906
  840SOL    HW2 2562   1.843   4.165   2.296 -0.2069 -1.1677 -0.2981
  841SOL     OW 2563   3.418   1.702   0.155 -0.5946 -0.1525  0.5694
  841SOL    HW1 2564   3.388   1.639   0.222 -2.1955  0.1900  0.2110
  841SOL    HW2 2565   3.400   1.658   0.072 -0.7808  0.3805  0.3307
  842SOL     OW 2566   4.264   4.653   2.267  0.3409  0.2520  0.3325
  842SOL    HW1 2567   4.241   4.561   2.250  1.0407  0.1265  0.0156
  842SOL    HW2 2568   4.239   4.667   2.358  1.1971 -0.5748  0.7149
  843SOL     OW 2569   5.054   3.582   2.268  0.1505 -0.2731 -0.0149
  843SOL    HW1 2570   5.008   3.651   2.221  1.7027  0.6371 -0.2674
  843SOL    HW2 2571   4.995   3.507   2.264 -0.8800  0.5535 -1.1491
  844SOL     OW 2572   5.971   4.219   2.638 -0.0062  0.3885  0.0599
  844SOL    HW1 2573   6.061   4.240   2.666 -0.1601 -0.2384  1.0713
  844SOL    HW2 2574   5.916   4.247   2.711 -0.7864  1.8712 -1.0383
  845SOL     OW 2575   4.935   4.444   2.954 -0.4146 -0.2132 -0.1015
  845SOL    HW1 2576   4.859   4.480   2.908 -0.9766 -0.2508  0.7777
  845SOL    HW2 2577   5.010   4.488   2.915 -1.0061  1.0180  0.1201
  846SOL     OW 2578   4.246   4.980   2.614  0.0074  0.2736  0.0120
  846SOL    HW1 2579   4.211   5.003   2.700  1.8612 -0.9819  1.1653
  846SOL    HW2 2580   4.207   4.894   2.595 -2.0993  1.4550 -1.4823
  847SOL     OW 2581   5.326   4.296   2.019  0.4596 -0.1227  0.5978
  847SOL    HW1 2582   5.231   4.304   2.026  0.0677 -1.1531 -2.1487
  847SOL    HW2 2583   5.356   4.384   1.997 -0.4647 -0.4337 -2.5038
  848SOL     OW 2584   5.296   4.407   2.835  0.6392  0.1349  0.0439
  848SOL    HW1 2585   5.279   4.501   2.828 -1.4282 -0.2296 -0.5100
  848SOL    HW2 2586   5.254   4.370   2.758  0.0641 -1.3998  1.0592
  849SOL     OW 2587   6.206   4.308   2.730  0.0847 -0.6410  0.1831
  849SOL    HW1 2588   6.265   4.379   2.756 -1.3393 -0.2361  2.5813
  849SOL    HW2 2589   6.263   4.243   2.689  2.1684 -0.1234  2.0928
  850SOL     OW 2590   5.434   4.047   2.446 -0.0719  0.3594  0.0440
  850SOL    HW1 2591   5.475   4.053   2.532 -0.0160  1.2441 -0.0394
  850SOL    HW2 2592   5.501   4.076   2.384 -0.5106  0.9252 -0.1780
  851SOL     OW 2593   4.900   3.782   2.145 -0.4298  0.3997  0.4814
  851SOL    HW1 2594   4.858   3.731   2.075  0.0610  0.9755 -0.2484
  851SOL    HW2 2595   4.969   3.831   2.100 -0.1219  0.7933  1.3770
  852SOL     OW 2596   3.388   2.452   0.805  0.2889 -0.3640  0.5463
  852SOL    HW1 2597   3.304   2.454   0.850 -0.4040  0.6945 -0.7026
  852SOL    HW2 2598   3.432   2.533   0.832  0.7283 -0.7070  0.8669
  853SOL     OW 2599   5.040   4.215   2.135  0.1874 -0.3869  1.0142
  853SOL    HW1 2600   5.101   4.153   2.175  1.9552  1.0995  0.7528
  853SOL    HW2 2601   5.082   4.300   2.145 -1.7379  0.6766  0.5380
  854SOL     OW 2602   4.331   3.904   2.232  0.2097 -0.4412  0.6484
  854SOL    HW1 2603   4.414   3.934   2.197  1.0482 -0.6721  2.3331
  854SOL    HW2 2604   4.350   3.817   2.268 -1.1459 -1.1736 -0.3240
  855SOL     OW 2605   5.041   4.017   2.516 -0.1323  0.3224  0.2991
  855SOL    HW1 2606   5.095   3.951   2.560 -1.3868 -1.0446 -0.1155
  855SOL    HW2 2607   5.028   4.085   2.582  0.9727  0.0355  0.8297
  856SOL     OW 2608   1.952   2.009   0.304  0.9126  0.6070  0.0737
  856SOL    HW1 2609   2.015   2.074   0.332  1.4693  0.1040  0.0015
  856SOL    HW2 2610   1.893   1.998   0.379  1.2251  0.6939  0.3321
  857SOL     OW 2611   2.336   1.451   0.081 -0.2039 -0.3850 -0.1098
  857SOL    HW1 2612   2.266   1.514   0.099 -0.4323 -0.5815 -0.3123
  857SOL    HW2 2613   2.377   1.436   0.166 -1.1153 -1.1219  0.2104
  858SOL     OW 2614   5.293   4.204   3.023 -0.1446  0.2230 -0.1267
  858SOL    HW1 2615   5.199   4.187   3.017 -0.2107  0.8838 -1.2189
  858SOL    HW2 2616   5.308   4.277   2.963  1.1350 -0.1719 -0.3109
  859SOL     OW 2617   5.684   4.568   2.813 -0.3872  0.1430 -0.3000
  859SOL    HW1 2618   5.650   4.488   2.772 -0.9208  0.5708 -0.7158
  859SOL    HW2 2619   5.758   4.539   2.866  0.5028 -0.4158 -1.7684
  860SOL     OW 2620   5.195   4.492   1.924 -0.0522 -0.0513  0.4775
  860SOL    HW1 2621   5.159   4.461   1.841 -3.0356  0.6129  1.4201
  860SOL    HW2 2622   5.186   4.588   1.920  1.3863  0.1400  0.9372
  861SOL     OW 2623   2.891   1.906   0.223 -0.5017  0.0003 -0.2945
  861SOL    HW1 2624   2.890   1.843   0.150 -1.4441  0.5908 -0.8124
  861SOL    HW2 2625   2.931   1.985   0.187  2.5387 -0.8629  0.9027
  862SOL     OW 2626   3.559   2.054   0.395 -0.3003 -0.3138 -0.1742
  862SOL    HW1 2627   3.468   2.073   0.416 -0.9243 -1.1215 -1.9147
  862SOL    HW2 2628   3.603   2.139   0.397 -1.6410  0.4620 -1.6784
  863SOL     OW 2629   4.825   4.515   2.646  0.1425  0.2712 -0.2589
  863SOL    HW1 2630   4.804   4.486   2.557  1.4317 -0.5802 -0.3042
  863SOL    HW2 2631   4.844   4.609   2.637  1.7424 -0.1020 -1.1753
  864SOL     OW 2632   2.327   1.853   0.224 -0.0531 -0.1943 -0.6387
  864SOL    HW1 2633   2.311   1.937   0.267  0.8974  0.1945 -1.0057
  864SOL    HW2 2634   2.358   1.877   0.137  2.0479 -0.8355 -0.1418
  865SOL     OW 2635   5.338   4.616   2.607 -0.0438 -0.4218 -0.4769
  865SOL    HW1 2636   5.334   4.699   2.560 -0.9511 -1.3976 -2.2223
  865SOL    HW2 2637   5.432   4.600   2.620  0.4702 -1.2390 -4.1813
  866SOL     OW 2638   4.907   4.245   2.653 -0.6523  0.3566  0.1496
  866SOL    HW1 2639   4.917   4.340   2.661 -2.3009  0.4652  1.3708
  866SOL    HW2 2640   4.823   4.226   2.694 -0.1946 -1.6963  0.2400
  867SOL     OW 2641   4.859   4.119   2.312 -0.4303 -0.8463 -0.2588
  867SOL    HW1 2642   4.895   4.068   2.385 -1.0040  0.9366  1.3454
  867SOL    HW2 2643   4.936   4.151   2.265 -0.0214 -0.9783  0.3132
  868SOL     OW 2644   5.683   3.693   2.091  0.4183  0.2880 -0.1110
  868SOL    HW1 2645   5.714   3.704   2.180  2.3134  0.6738 -0.7609
  868SOL    HW2 2646   5.621   3.620   2.095  2.7595 -1.7795  1.0646
  869SOL     OW 2647   4.447   4.404   2.523 -0.2254  0.2997 -0.2382
  869SOL    HW1 2648   4.537   4.384   2.496  0.2846  0.3577  1.3363
  869SOL    HW2 2649   4.401   4.321   2.518 -0.0113  0.2027 -0.7242
  870SOL     OW 2650   3.444   2.059   0.093  0.1878 -0.3685  0.4734
  870SOL    HW1 2651   3.491   2.140   0.115 -0.0683 -0.2977  0.7588
  870SOL    HW2 2652   3.363   2.064   0.144  0.1692 -0.8024  0.4848
  871SOL     OW 2653   4.456   4.421   2.814  0.4312  0.5376 -0.2092
  871SOL    HW1 2654   4.416   4.334   2.822 -2.3678  1.5979 -1.5233
  871SOL    HW2 2655   4.461   4.436   2.719  0.0865  2.1422 -0.0006
  872SOL     OW 2656   5.156   4.448   2.198  0.1797 -0.1684 -0.4456
  872SOL    HW1 2657   5.166   4.502   2.119 -0.5105 -0.2242 -0.5834
  872SOL    HW2 2658   5.224   4.479   2.257  0.1572  0.4667 -0.7438
  873SOL     OW 2659   3.547   2.299   0.156  0.3500  0.4874  0.2124
  873SOL    HW1 2660   3.609   2.308   0.228 -1.3244  2.2765  1.5397
  873SOL    HW2 2661   3.477   2.361   0.177 -0.2245  1.0717 -2.9839
  874SOL     OW 2662   2.663   2.040   0.230  0.1315 -0.1763 -0.2786
  874SOL    HW1 2663   2.748   2.002   0.207 -0.5105 -0.6004 -2.1238
  874SOL    HW2 2664   2.607   2.022   0.155 -1.8026 -0.4673  1.1294
  875SOL     OW 2665   5.204   4.076   2.305  0.4091 -0.3564 -0.3105
  875SOL    HW1 2666   5.294   4.070   2.338  0.7644  1.5088 -0.8141
  875SOL    HW2 2667   5.150   4.055   2.381  1.2637 -0.4897  0.2843
  876SOL     OW 2668   5.900   3.673   2.939 -0.2962 -0.2844 -0.0364
  876SOL    HW1 2669   5.971   3.700   2.997 -1.1252 -0.9747  1.3432
  876SOL    HW2 2670   5.932   3.693   2.851  1.1556  0.4131  0.6202
  877SOL     OW 2671   4.623   4.190   2.486  0.0880 -0.5725 -0.1945
  877SOL    HW1 2672   4.637   4.158   2.575 -1.2149 -0.3494  0.1233
  877SOL    HW2 2673   4.709   4.218   2.457  0.9483 -2.6541  0.1697
  878SOL     OW 2674   3.220   1.941   0.213  0.1404 -0.4682  0.2299
  878SOL    HW1 2675   3.177   1.955   0.129  0.4880 -0.3230  0.0752
  878SOL    HW2 2676   3.271   1.861   0.202 -0.7499 -1.1107  0.6796
  879SOL     OW 2677   3.744   1.684   0.183  0.3129 -0.4140  0.3090
  879SOL    HW1 2678   3.810   1.650   0.123 -0.0574 -1.8579  0.6869
  879SOL    HW2 2679   3.792   1.743   0.241  1.0546 -0.5889 -0.1211
  880SOL     OW 2680   2.646   1.455   0.263 -0.0570 -0.1134  0.0569
  880SOL    HW1 2681   2.656   1.476   0.170 -0.8536 -0.4790 -0.1208
  880SOL    HW2 2682   2.564   1.497   0.288  0.7443  1.0121  0.9121
  881SOL     OW 2683   4.448   4.247   1.800  0.0204 -0.2040  0.1975
  881SOL    HW1 2684   4.416   4.171   1.849 -2.1833  0.3761 -0.2338
  881SOL    HW2 2685   4.459   4.215   1.711  1.2142 -0.5319  0.4465
  882SOL     OW 2686   4.242   4.151   2.404 -0.2354  0.2674  0.3096
  882SOL    HW1 2687   4.156   4.124   2.434 -0.6044  0.7408 -0.2913
  882SOL    HW2 2688   4.286   4.070   2.379 -1.6113  0.1904 -2.2146
  883SOL     OW 2689   5.593   4.065   2.673  0.7420 -0.1663 -0.7994
  883SOL    HW1 2690   5.661   4.006   2.641  0.0001 -0.4601 -1.8724
  883SOL    HW2 2691   5.600   4.059   2.768  1.0632 -1.5333 -0.8928
  884SOL     OW 2692   5.629   4.030   2.943 -0.0264  0.5656  0.1757
  884SOL    HW1 2693   5.630   4.103   3.005  0.3619  0.5736  0.1618
  884SOL    HW2 2694   5.672   3.958   2.990 -0.4154  0.3402  0.1935
  885SOL     OW 2695   4.832   4.253   1.954 -0.2272  0.7327 -0.5222
  885SOL    HW1 2696   4.906   4.251   2.015 -1.4075  2.5810  1.1084
  885SOL    HW2 2697   4.806   4.162   1.944 -0.0653  0.3371  1.9179
  886SOL     OW 2698   2.449   2.256   0.020 -0.2306  0.3958 -0.8785
  886SOL    HW1 2699   2.390   2.268  -0.054  1.2484 -0.2367 -2.2156
  886SOL    HW2 2700   2.493   2.173   0.003 -0.1151  0.0493  0.9188
  887SOL     OW 2701   3.785   1.991   0.169 -0.0956 -0.6763  0.5047
  887SOL    HW1 2702   3.835   2.044   0.107 -2.8311  2.0324  0.3360
  887SOL    HW2 2703   3.821   2.014   0.254 -0.2218  0.3294  0.3060
  888SOL     OW 2704   5.092   3.682   2.538 -1.3588  0.0244 -0.3606
  888SOL    HW1 2705   5.094   3.672   2.443 -1.3324 -0.2042 -0.3358
  888SOL    HW2 2706   5.180   3.710   2.561 -0.9403 -1.3634 -0.2410
  889SOL     OW 2707   1.497   3.363   2.120 -0.7073 -0.4685  0.2109
  889SOL    HW1 2708   1.423   3.420   2.097  0.4831  0.2940 -2.0492
  889SOL    HW2 2709   1.481   3.283   2.069 -0.0225 -0.3289 -0.2259
  890SOL     OW 2710   5.937   3.977   2.526  0.3637  0.3366  0.2018
  890SOL    HW1 2711   5.980   4.056   2.558 -0.8017  0.8188  0.6173
  890SOL    HW2 2712   5.886   3.946   2.601  1.0010 -0.9674  0.1261
  891SOL     OW 2713   1.850   3.898   2.266  0.2642 -0.5922  0.3784
  891SOL    HW1 2714   1.793   3.847   2.209  0.5982 -0.9047  0.3147
  891SOL    HW2 2715   1.797   3.918   2.343  0.0311 -0.7630  0.2619
  892SOL     OW 2716   1.914   0.668   0.060  0.2299 -0.3449  0.0200
  892SOL    HW1 2717   1.852   0.635  -0.004  1.8986 -0.4259 -1.6393
  892SOL    HW2 2718   1.960   0.591   0.092  0.4746 -0.1532  0.1416
  893SOL     OW 2719   2.185   4.689   1.306  0.0461  0.1148 -0.0635
  893SOL    HW1 2720   2.236   4.680   1.225 -1.0326  0.3501 -0.7955
  893SOL    HW2 2721   2.132   4.610   1.310 -0.5655  0.5159 -0.0740
  894SOL     OW 2722   2.215   0.621   0.763  0.4397  0.2097 -0.1174
  894SOL    HW1 2723   2.175   0.548   0.715 -0.5452 -0.5383  1.7498
  894SOL    HW2 2724   2.145   0.656   0.817  0.9214  2.5309 -0.8475
  895SOL     OW 2725   2.493   1.590   1.350  0.0342  0.3229  0.3083
  895SOL    HW1 2726   2.466   1.514   1.401  0.5719 -0.4281 -0.4873
  895SOL    HW2 2727   2.419   1.607   1.291  0.1374  0.0490  0.0957
  896SOL     OW 2728   3.449   1.573   0.543 -0.0101  0.2714  0.3129
  896SOL    HW1 2729   3.376   1.599   0.487  0.3529  2.7740  0.8823
  896SOL    HW2 2730   3.412   1.573   0.631 -0.1507 -2.0164  0.3384
  897SOL     OW 2731   2.769   1.234   0.195 -0.6606  0.4809 -0.5865
  897SOL    HW1 2732   2.859   1.254   0.167  0.3626  0.0023  2.0833
  897SOL    HW2 2733   2.737   1.316   0.232 -0.1974 -0.0635  1.1129
  898SOL     OW 2734   2.131   1.295   1.380 -0.1135  0.0927 -0.1149
  898SOL    HW1 2735   2.047   1.250   1.381 -0.4014  0.6277  0.1985
  898SOL    HW2 2736   2.177   1.259   1.304 -0.2117 -0.9450  0.3029
  899SOL     OW 2737   2.720   5.461   2.051  0.5095 -0.2472 -0.8650
  899SOL    HW1 2738   2.633   5.449   2.013  0.0493 -1.2040  0.4452
  899SOL    HW2 2739   2.742   5.376   2.089  1.4413  0.3565 -0.0011
  900SOL     OW 2740   3.165   1.002   0.400  0.4168  0.1311 -0.0769
  900SOL    HW1 2741   3.077   1.040   0.406 -0.0214  0.1461 -3.8834
  900SOL    HW2 2742   3.151   0.908   0.404  0.3338  0.1536  0.1588
  901SOL     OW 2743   2.327   1.523   1.848 -0.2212  0.2433  0.0690
  901SOL    HW1 2744   2.264   1.474   1.901 -1.6835  1.5766 -0.3689
  901SOL    HW2 2745   2.307   1.615   1.866 -0.5023  0.7276 -2.4693
  902SOL     OW 2746   1.951   5.286   1.338  0.8511 -0.4754 -0.5925
  902SOL    HW1 2747   1.943   5.225   1.264  3.3871 -0.8277 -0.6635
  902SOL    HW2 2748   2.006   5.240   1.401 -1.0048 -0.0642  1.4821
  903SOL     OW 2749   3.338   1.737   1.408  0.7014  0.2966 -0.3349
  903SOL    HW1 2750   3.379   1.734   1.322 -0.2782 -0.0775 -0.8126
  903SOL    HW2 2751   3.244   1.735   1.390  0.4599  0.9879  0.7200
  904SOL     OW 2752   2.203   4.897   1.672  0.4095 -0.0984 -0.1506
  904SOL    HW1 2753   2.258   4.882   1.749  0.5478  3.6927  0.7098
  904SOL    HW2 2754   2.131   4.952   1.705 -0.7431 -0.1765 -2.3334
  905SOL     OW 2755   3.443   4.613   0.745  0.1794 -0.3838  0.3431
  905SOL    HW1 2756   3.513   4.618   0.680  0.6811 -0.3465  0.8805
  905SOL    HW2 2757   3.366   4.650   0.701  0.3416 -0.9592 -0.4496
  906SOL     OW 2758   2.106   1.516   0.387  0.1607 -0.3008 -0.4563
  906SOL    HW1 2759   2.023   1.536   0.429 -0.9085  0.0993 -2.5839
  906SOL    HW2 2760   2.113   1.581   0.317  2.1868 -0.4602 -0.4475
  907SOL     OW 2761   2.440   1.380   1.501  0.0931 -0.1128  0.5620
  907SOL    HW1 2762   2.478   1.417   1.581 -0.1213  0.4436  0.4075
  907SOL    HW2 2763   2.388   1.305   1.532  1.2342 -0.8405  0.7870
  908SOL     OW 2764   1.757   1.384   0.330  0.0138 -0.1652 -0.1012
  908SOL    HW1 2765   1.791   1.443   0.397  0.6129 -0.7126  0.0924
  908SOL    HW2 2766   1.747   1.439   0.253  0.1194  0.2887  0.2002
  909SOL     OW 2767   1.883   1.194   1.495  0.3458 -0.5976  0.1544
  909SOL    HW1 2768   1.922   1.209   1.581  0.2370  0.5741  0.0229
  909SOL    HW2 2769   1.897   1.101   1.478  1.6322 -0.5507  0.8176
  910SOL     OW 2770   2.495   2.034   1.186  0.4270  0.1282 -0.4432
  910SOL    HW1 2771   2.472   1.994   1.270 -1.5831  2.0350  0.0107
  910SOL    HW2 2772   2.471   1.969   1.121  2.1622 -1.4445  0.4070
  911SOL     OW 2773   3.364   4.339   1.404 -0.1529 -0.3026 -0.0483
  911SOL    HW1 2774   3.361   4.418   1.350 -0.7586 -0.4408 -0.2191
  911SOL    HW2 2775   3.308   4.276   1.359  0.0480 -0.7202  0.2707
  912SOL     OW 2776   2.813   0.454   0.602 -0.3064  0.0377 -0.2438
  912SOL    HW1 2777   2.762   0.395   0.546 -1.0939  1.0527 -0.6358
  912SOL    HW2 2778   2.856   0.396   0.665  0.8038 -1.1856 -2.0098
  913SOL     OW 2779   2.124   1.663   0.149  0.3143  0.5947  0.5943
  913SOL    HW1 2780   2.043   1.704   0.119  0.6629  2.3246  1.9089
  913SOL    HW2 2781   2.190   1.732   0.144  1.0352  0.1051  2.3574
  914SOL     OW 2782   3.300   1.063   0.682  0.3866  0.1435  0.4869
  914SOL    HW1 2783   3.270   1.016   0.604  1.3846  0.6097 -0.1899
  914SOL    HW2 2784   3.311   1.153   0.653  0.3836  0.4027  1.2756
  915SOL     OW 2785   1.717   4.790   1.782 -0.0846 -0.2540  0.6605
  915SOL    HW1 2786   1.650   4.855   1.804 -0.5023 -0.3609 -0.2359
  915SOL    HW2 2787   1.714   4.727   1.853 -0.3579  0.1833  1.0453
  916SOL     OW 2788   2.890   1.096   1.092  0.2177 -0.2056  0.5045
  916SOL    HW1 2789   2.870   1.003   1.084 -0.3057 -0.1191  0.7213
  916SOL    HW2 2790   2.930   1.119   1.009 -0.7984 -0.3561 -0.0504
  917SOL     OW 2791   3.056   1.378   1.617 -0.2028 -0.1884 -0.1059
  917SOL    HW1 2792   3.127   1.315   1.631  2.4295  2.3227 -1.0870
  917SOL    HW2 2793   3.085   1.457   1.662 -0.4600  2.0906 -3.5191
  918SOL     OW 2794   2.773   4.209   0.675  0.5168  0.0906 -0.0604
  918SOL    HW1 2795   2.754   4.187   0.766 -2.0285 -0.3512 -0.6154
  918SOL    HW2 2796   2.782   4.305   0.675 -2.3707  0.4453  0.2941
  919SOL     OW 2797   1.806   5.484   1.794  0.0230  0.1388 -0.4362
  919SOL    HW1 2798   1.745   5.538   1.842  0.8183 -0.0789  0.8687
  919SOL    HW2 2799   1.755   5.447   1.722 -1.4163 -0.1848  0.7238
  920SOL     OW 2800   3.122   2.039   1.555 -0.2561 -0.3067 -0.0134
  920SOL    HW1 2801   3.032   2.041   1.587 -0.0469  1.5660  0.5458
  920SOL    HW2 2802   3.117   2.078   1.467 -0.0891 -0.8655 -0.2762
  921SOL     OW 2803   1.885   4.364   2.076 -0.1694  0.1925  0.3181
  921SOL    HW1 2804   1.974   4.381   2.108 -0.7032  0.1514  1.8523
  921SOL    HW2 2805   1.854   4.290   2.127 -0.9792 -0.0200 -0.4510
  922SOL     OW 2806   3.268   1.357   0.581  0.2592  0.1069 -0.2786
  922SOL    HW1 2807   3.198   1.396   0.529 -0.3921 -0.7351 -0.0518
  922SOL    HW2 2808   3.243   1.373   0.672  1.2795  1.3749 -0.1901
  923SOL     OW 2809   3.662   1.896   0.728 -1.2067 -0.1611  0.0996
  923SOL    HW1 2810   3.587   1.954   0.745  0.0267  1.3420  0.7122
  923SOL    HW2 2811   3.734   1.956   0.707 -0.0302 -1.5323  0.0717
  924SOL     OW 2812   3.288   5.183   1.554  0.0757 -0.3574 -0.4312
  924SOL    HW1 2813   3.295   5.275   1.527  0.1607 -0.6923 -1.6087
  924SOL    HW2 2814   3.194   5.170   1.568 -0.0985 -0.4272 -1.5667
  925SOL     OW 2815   2.293   4.919   1.409 -0.8649  0.2279 -0.2993
  925SOL    HW1 2816   2.279   4.920   1.503  0.2927 -1.3581 -0.0746
  925SOL    HW2 2817   2.247   4.841   1.378 -0.5157  0.2583 -0.9204
  926SOL     OW 2818   3.505   4.666   1.759 -0.7105 -0.0575  0.5097
  926SOL    HW1 2819   3.454   4.673   1.839 -0.9262  1.9146  0.2447
  926SOL    HW2 2820   3.439   4.656   1.690 -0.4997 -3.1782  0.6042
  927SOL     OW 2821   2.682   5.280   1.710  0.1201  0.3298  0.3973
  927SOL    HW1 2822   2.738   5.203   1.706 -0.9396 -0.4156 -0.5127
  927SOL    HW2 2823   2.738   5.351   1.678  0.8481 -0.1992  0.4569
  928SOL     OW 2824   3.000   4.400   0.955 -0.1815 -0.1335 -0.7665
  928SOL    HW1 2825   2.910   4.426   0.977  0.1136 -0.2300  0.6054
  928SOL    HW2 2826   3.018   4.446   0.873 -1.6147 -0.4130 -1.2733
  929SOL     OW 2827   4.853   3.277   2.997 -0.9869  0.4251  0.2705
  929SOL    HW1 2828   4.868   3.230   3.079 -0.1943 -1.5807 -0.9437
  929SOL    HW2 2829   4.793   3.348   3.021 -0.1892  0.3724  2.7041
  930SOL     OW 2830   2.250   1.033   0.886  0.2710  0.0230 -0.1675
  930SOL    HW1 2831   2.294   1.117   0.894 -1.2557  0.9262 -0.8561
  930SOL    HW2 2832   2.310   0.980   0.832  0.9003  0.9193 -0.3730
  931SOL     OW 2833   2.136   1.884   1.299  0.0576 -0.2761 -0.4818
  931SOL    HW1 2834   2.104   1.935   1.225 -2.9651  1.4003  1.7327
  931SOL    HW2 2835   2.107   1.795   1.281 -1.3858  0.2606 -0.9794
  932SOL     OW 2836   3.678   4.817   2.009 -0.3652  0.3755  0.6989
  932SOL    HW1 2837   3.663   4.905   2.042  0.7556  0.7873  0.1700
  932SOL    HW2 2838   3.593   4.773   2.018 -1.0380  1.6115  0.6378
  933SOL     OW 2839   3.043   1.281   0.175 -0.1433 -0.3854 -0.3840
  933SOL    HW1 2840   3.042   1.325   0.261  0.9668 -1.7761  0.3736
  933SOL    HW2 2841   3.073   1.349   0.115  1.2964  0.0241  0.7228
  934SOL     OW 2842   2.737   4.473   1.034  0.0429  0.2995 -0.7619
  934SOL    HW1 2843   2.708   4.480   1.125 -0.4244 -2.8116 -0.5618
  934SOL    HW2 2844   2.660   4.497   0.983  0.1936  1.6993 -0.3662
  935SOL     OW 2845   3.240   1.671   0.421  0.3566  0.2313  0.2091
  935SOL    HW1 2846   3.189   1.736   0.469 -0.5218 -0.2110 -0.0952
  935SOL    HW2 2847   3.189   1.654   0.341  0.0953 -1.4505  0.6830
  936SOL     OW 2848   2.205   1.482   0.794  0.1155  0.1795 -0.1204
  936SOL    HW1 2849   2.110   1.479   0.781 -0.0140 -1.4233  1.0007
  936SOL    HW2 2850   2.218   1.545   0.865 -0.2333 -0.6399  0.6776
  937SOL     OW 2851   3.397   1.708   0.914 -0.1114  0.4018  0.3104
  937SOL    HW1 2852   3.470   1.656   0.947 -0.0292  0.1142 -0.3069
  937SOL    HW2 2853   3.334   1.643   0.883 -0.6661  0.6455  0.9045
  938SOL     OW 2854   3.027   1.693   1.435  0.3956 -0.5126 -0.3073
  938SOL    HW1 2855   2.991   1.624   1.379 -0.9738 -0.0373 -0.0409
  938SOL    HW2 2856   2.989   1.774   1.401  1.6630  0.0958 -0.3531
  939SOL     OW 2857   3.563   0.835   0.694 -0.3067 -0.2225 -0.0501
  939SOL    HW1 2858   3.538   0.899   0.760 -2.1960 -1.8098  0.8526
  939SOL    HW2 2859   3.633   0.785   0.735 -1.3029 -1.0414  0.6930
  940SOL     OW 2860   2.201   5.722   2.080 -0.0524 -0.1808 -0.1951
  940SOL    HW1 2861   2.188   5.627   2.086  0.6279 -0.2274  0.7145
  940SOL    HW2 2862   2.113   5.759   2.091 -0.3303 -0.6999 -0.6212
  941SOL     OW 2863   1.827   4.552   1.600  0.0824 -0.5401 -0.3743
  941SOL    HW1 2864   1.858   4.463   1.582  0.8007 -0.6529  1.2446
  941SOL    HW2 2865   1.907   4.601   1.621 -0.2481  0.6287 -1.6901
  942SOL     OW 2866   2.415   1.585   0.310 -0.2524  0.0326  0.4264
  942SOL    HW1 2867   2.399   1.677   0.290  0.5965  0.0938 -0.0192
  942SOL    HW2 2868   2.335   1.555   0.351 -1.3323  0.4399 -1.2679
  943SOL     OW 2869   1.928   2.053   0.928 -0.2012  0.2111 -0.0763
  943SOL    HW1 2870   1.850   2.032   0.876 -0.5240  0.9890  0.0879
  943SOL    HW2 2871   1.922   2.147   0.943  0.9770  0.3478 -0.3954
  944SOL     OW 2872   2.763   1.527   0.809 -0.4364 -0.2538 -0.2840
  944SOL    HW1 2873   2.726   1.451   0.854  0.7735 -2.0627 -2.1415
  944SOL    HW2 2874   2.695   1.555   0.748 -1.6555  1.5152  1.7578
  945SOL     OW 2875   2.782   0.856   1.119 -0.0329  0.0932  0.1812
  945SOL    HW1 2876   2.687   0.868   1.122 -0.0109  0.2519  2.7500
  945SOL    HW2 2877   2.803   0.816   1.204  2.1243 -0.5955 -0.6269
  946SOL     OW 2878   3.465   4.657   2.047  0.9031 -0.4398 -0.0769
  946SOL    HW1 2879   3.384   4.683   2.091  1.9276 -0.3217  1.8470
  946SOL    HW2 2880   3.467   4.561   2.056  0.6909 -0.5047 -0.6767
  947SOL     OW 2881   2.366   4.859   1.895 -0.0865 -0.6401 -0.1839
  947SOL    HW1 2882   2.441   4.914   1.874  0.0259 -1.1437 -1.1715
  947SOL    HW2 2883   2.388   4.820   1.980  1.4135 -1.8278 -1.0579
  948SOL     OW 2884   2.553   1.773   0.988  0.1562  0.0105  0.1574
  948SOL    HW1 2885   2.575   1.703   1.050  0.0469  0.8125  1.1320
  948SOL    HW2 2886   2.637   1.808   0.960  0.1945 -0.0688  0.1710
  949SOL     OW 2887   3.130   4.744   1.754 -0.0612  0.0537 -0.3048
  949SOL    HW1 2888   3.202   4.724   1.694 -1.4241 -0.1937 -1.9337
  949SOL    HW2 2889   3.070   4.798   1.702 -0.6377  1.0149  1.2881
  950SOL     OW 2890   2.725   1.092   1.360 -0.3241  0.1913 -0.2883
  950SOL    HW1 2891   2.630   1.094   1.350 -0.3050 -0.1532 -0.5774
  950SOL    HW2 2892   2.759   1.101   1.271 -0.0929  0.0175 -0.2216
  951SOL     OW 2893   3.117   4.816   0.840  0.0980 -0.1826  0.0952
  951SOL    HW1 2894   3.112   4.801   0.746 -0.6698 -0.0812  0.1173
  951SOL    HW2 2895   3.051   4.883   0.858 -0.6213 -1.0852  0.8917
  952SOL     OW 2896   2.152   0.191   0.212 -0.0927 -0.0699 -0.3534
  952SOL    HW1 2897   2.213   0.239   0.156 -0.8140 -1.4275 -2.4139
  952SOL    HW2 2898   2.181   0.100   0.206 -0.5631 -0.3326  1.0406
  953SOL     OW 2899   2.973   4.894   1.545  0.4330  0.3006  0.0258
  953SOL    HW1 2900   3.007   4.874   1.458  2.3922  0.8529  0.6260
  953SOL    HW2 2901   2.886   4.931   1.528  0.2915 -0.6561 -1.6041
  954SOL     OW 2902   3.050   1.433   0.429  0.8675  0.2334  0.5668
  954SOL    HW1 2903   3.060   1.528   0.440  0.6118  0.3139  0.0956
  954SOL    HW2 2904   2.958   1.416   0.446 -0.1944  0.7061 -3.7121
  955SOL     OW 2905   1.785   0.982   0.555  0.0080 -0.1663  0.4352
  955SOL    HW1 2906   1.843   1.058   0.565 -0.5209  0.1089  1.5205
  955SOL    HW2 2907   1.824   0.932   0.484 -0.5513  1.9669 -1.4930
  956SOL     OW 2908   2.926   1.695   0.456  0.2629 -0.4064  0.4628
  956SOL    HW1 2909   2.921   1.765   0.521  2.1092 -0.1903  0.4329
  956SOL    HW2 2910   2.888   1.734   0.377  0.4924  0.2877  0.6791
  957SOL     OW 2911   1.988   4.864   1.362 -0.0516  0.0994  0.0095
  957SOL    HW1 2912   2.041   4.810   1.303 -2.0357 -1.1239 -0.7526
  957SOL    HW2 2913   2.022   4.845   1.449  0.0677 -1.4644 -0.3606
  958SOL     OW 2914   2.740   4.372   1.298  0.7352 -0.5090  0.2685
  958SOL    HW1 2915   2.760   4.357   1.390  1.2300  0.2271  0.2904
  958SOL    HW2 2916   2.796   4.309   1.251  1.2815 -0.1518  0.4315
  959SOL     OW 2917   3.216   0.412   0.587  0.6021 -0.3997  0.1708
  959SOL    HW1 2918   3.158   0.434   0.514 -0.9731  0.3753  1.6048
  959SOL    HW2 2919   3.284   0.479   0.585  1.5199 -1.3053 -1.5136
  960SOL     OW 2920   2.931   4.428   0.469 -0.6164  0.3723  0.6606
  960SOL    HW1 2921   2.939   4.334   0.456 -1.7363  0.1411  1.5459
  960SOL    HW2 2922   2.883   4.459   0.392  0.5961  0.3938 -0.1167
  961SOL     OW 2923   3.212   1.531   0.809 -0.1981  0.2892 -0.2740
  961SOL    HW1 2924   3.229   1.459   0.869 -2.1425  0.4700  0.5560
  961SOL    HW2 2925   3.130   1.570   0.839 -0.3565  1.4684 -2.0261
  962SOL     OW 2926   3.436   0.869   1.124  0.1655  0.3429 -0.0499
  962SOL    HW1 2927   3.366   0.804   1.127 -0.2734  0.7528 -0.8849
  962SOL    HW2 2928   3.436   0.908   1.211 -0.4428  0.1302  0.0541
  963SOL     OW 2929   3.416   1.262   0.357 -0.4475 -0.2120  0.8810
  963SOL    HW1 2930   3.467   1.341   0.340 -1.0923 -0.2615 -1.6792
  963SOL    HW2 2931   3.371   1.280   0.439  0.6054  1.4303  1.1488
  964SOL     OW 2932   3.503   1.012   0.286  0.3480 -0.3764 -0.3674
  964SOL    HW1 2933   3.419   0.976   0.256 -0.0885 -1.7293  2.2136
  964SOL    HW2 2934   3.481   1.100   0.318  0.2957 -0.0281 -1.3138
  965SOL     OW 2935   2.441   0.425   0.431 -0.2956 -0.0949 -0.5222
  965SOL    HW1 2936   2.486   0.497   0.474  0.3211  0.1676 -1.5703
  965SOL    HW2 2937   2.409   0.462   0.349  0.4206 -1.1129 -1.2849
  966SOL     OW 2938   3.447   5.418   1.738  0.0629  0.4156 -0.1797
  966SOL    HW1 2939   3.483   5.480   1.802 -0.4633 -0.5244  1.0714
  966SOL    HW2 2940   3.354   5.412   1.760 -0.7445  2.0754 -2.7486
  967SOL     OW 2941   3.098   1.650   1.712 -0.2967 -0.0685 -0.0635
  967SOL    HW1 2942   3.085   1.676   1.621  0.6048  1.6214  0.2569
  967SOL    HW2 2943   3.011   1.656   1.752 -0.3746  1.0603 -0.3714
  968SOL     OW 2944   3.308   1.757   1.842  0.4532 -0.2392 -0.2179
  968SOL    HW1 2945   3.320   1.836   1.788  1.1504  0.4753  0.9428
  968SOL    HW2 2946   3.236   1.710   1.799  0.9955  0.2875 -1.7755
  969SOL     OW 2947   2.904   1.629   1.166 -0.8062  0.4344  0.1221
  969SOL    HW1 2948   2.851   1.708   1.176 -1.7090  0.0479 -1.3181
  969SOL    HW2 2949   2.844   1.557   1.183 -0.3910  0.0218 -0.1345
  970SOL     OW 2950   3.268   1.104   1.455  0.7345 -0.4365 -0.2791
  970SOL    HW1 2951   3.182   1.115   1.415  0.2719  0.7294  0.9638
  970SOL    HW2 2952   3.307   1.192   1.453  1.8092 -0.9108 -0.6397
  971SOL     OW 2953   3.366   4.704   1.516  0.6175 -0.1963 -0.0132
  971SOL    HW1 2954   3.330   4.781   1.473 -1.2243 -0.6340  0.6703
  971SOL    HW2 2955   3.390   4.645   1.444 -0.3665 -0.0279 -0.4870
  972SOL     OW 2956   2.544   1.369   1.785  0.1050 -0.4022 -0.1977
  972SOL    HW1 2957   2.462   1.407   1.816 -0.8962 -0.9291 -2.0774
  972SOL    HW2 2958   2.536   1.276   1.805 -0.3244 -0.6601 -1.4917
  973SOL     OW 2959   2.053   5.489   1.720  0.3650  0.2471 -0.7815
  973SOL    HW1 2960   2.078   5.397   1.731 -0.8579  0.0499  0.6981
  973SOL    HW2 2961   1.966   5.495   1.758  1.4499  2.5620  1.7003
  974SOL     OW 2962   2.753   5.144   1.447 -0.7887 -0.4085 -0.0044
  974SOL    HW1 2963   2.731   5.233   1.420 -0.7155 -0.7998 -1.4286
  974SOL    HW2 2964   2.668   5.100   1.455 -0.8536 -0.1044  1.1631
  975SOL     OW 2965   1.984   1.299   1.021  0.1511 -0.0041 -0.2201
  975SOL    HW1 2966   1.923   1.263   1.086  0.6191  0.9920  0.8204
  975SOL    HW2 2967   2.061   1.243   1.028 -0.2207 -0.6014 -0.7607
  976SOL     OW 2968   2.670   0.697   0.797  0.8692 -0.2707  0.3066
  976SOL    HW1 2969   2.738   0.753   0.835  0.9558 -0.3358  0.2505
  976SOL    HW2 2970   2.694   0.691   0.704  0.1408  0.6321  0.0500
  977SOL     OW 2971   3.020   4.541   0.723  0.1317  0.3992 -0.3394
  977SOL    HW1 2972   3.073   4.619   0.707  0.6318 -0.3322 -2.6838
  977SOL    HW2 2973   2.994   4.511   0.635 -2.6161 -0.3503  0.6165
  978SOL     OW 2974   3.240   1.316   0.992  0.0121 -0.2611 -0.6015
  978SOL    HW1 2975   3.234   1.334   1.086 -0.2707 -1.3931 -0.3969
  978SOL    HW2 2976   3.245   1.221   0.985  2.0694 -0.1275 -1.6452
  979SOL     OW 2977   5.489   3.243   2.954  0.4921  0.6018 -0.1882
  979SOL    HW1 2978   5.453   3.247   3.043 -0.4379  0.0352 -0.5334
  979SOL    HW2 2979   5.488   3.333   2.923 -1.1381  0.5322 -0.3835
  980SOL     OW 2980   1.995   1.630   1.331 -0.4398  0.3588 -0.0140
  980SOL    HW1 2981   1.928   1.562   1.331 -0.6782  0.5859  0.4205
  980SOL    HW2 2982   2.070   1.590   1.288 -0.4257 -0.3387  0.6262
  981SOL     OW 2983   2.544   5.070   1.818 -0.0838  0.0494 -0.2309
  981SOL    HW1 2984   2.619   5.012   1.834  0.5529  0.8975 -0.0403
  981SOL    HW2 2985   2.577   5.134   1.756 -0.4622  0.7994  0.3288
  982SOL     OW 2986   3.603   5.081   1.952  0.2882 -0.3952  0.3452
  982SOL    HW1 2987   3.557   5.091   1.869 -0.4736 -0.7849  0.7084
  982SOL    HW2 2988   3.686   5.128   1.940  0.3665 -0.7897 -0.7672
  983SOL     OW 2989   2.900   4.592   1.509 -0.0461 -0.1531  0.4200
  983SOL    HW1 2990   2.962   4.625   1.443 -1.0686  0.5243 -0.2314
  983SOL    HW2 2991   2.874   4.669   1.558  1.2914 -0.7626  2.1895
  984SOL     OW 2992   2.375   4.393   1.604  0.1198  0.1128  0.0618
  984SOL    HW1 2993   2.371   4.328   1.533  0.4861 -0.2662  0.3826
  984SOL    HW2 2994   2.431   4.463   1.568  0.8984 -0.4092  0.2302
  985SOL     OW 2995   2.425   1.094   1.343 -0.0047  0.0615 -0.1865
  985SOL    HW1 2996   2.414   1.182   1.307 -1.1897 -0.3047 -0.7523
  985SOL    HW2 2997   2.386   1.098   1.430  1.5201  0.5378  0.5275
  986SOL     OW 2998   3.249   4.959   1.127 -0.3821  0.2433  0.3980
  986SOL    HW1 2999   3.192   4.992   1.058  0.3538 -1.4698 -1.1185
  986SOL    HW2 3000   3.223   4.868   1.139  1.0389 -0.1547  0.6940
  987SOL     OW 3001   3.127   0.758   0.115  0.3750  0.3986 -0.0584
  987SOL    HW1 3002   3.142   0.850   0.094  0.5023  0.5403  0.6371
  987SOL    HW2 3003   3.212   0.725   0.145  0.8306 -0.4604 -2.0640
  988SOL     OW 3004   1.995   4.484   1.219  0.0912  0.4749 -0.1120
  988SOL    HW1 3005   1.964   4.519   1.135  0.9177  1.2802 -0.0979
  988SOL    HW2 3006   2.051   4.410   1.194 -0.7882 -0.1815 -0.1920
  989SOL     OW 3007   1.807   1.539   1.708  0.5485 -0.1044  0.3130
  989SOL    HW1 3008   1.897   1.546   1.675  0.3350  0.0546 -0.2520
  989SOL    HW2 3009   1.754   1.524   1.629  0.0075  0.4138  0.5694
  990SOL     OW 3010   2.967   0.691   0.908 -0.0317  0.0388  0.2190
  990SOL    HW1 3011   2.911   0.739   0.969  0.5081  0.5643  0.3120
  990SOL    HW2 3012   2.984   0.753   0.837  0.2921 -0.1700  0.1111
  991SOL     OW 3013   3.523   5.207   2.192 -0.4252  0.3254  0.3506
  991SOL    HW1 3014   3.558   5.135   2.139  1.1367  0.6094  0.9348
  991SOL    HW2 3015   3.430   5.185   2.204  0.2611 -2.3220  1.6407
  992SOL     OW 3016   2.443   4.551   0.609 -0.4492 -0.0664  0.2967
  992SOL    HW1 3017   2.472   4.613   0.542  0.0424 -2.1016 -1.4652
  992SOL    HW2 3018   2.351   4.533   0.587 -0.4710 -0.2735  0.5501
  993SOL     OW 3019   3.058   0.812   0.672  0.1104  0.8065 -0.5446
  993SOL    HW1 3020   3.033   0.783   0.584  0.5933  0.2336 -0.5053
  993SOL    HW2 3021   3.138   0.762   0.691 -1.4262 -1.1032  1.2732
  994SOL     OW 3022   2.850   1.703   1.809 -0.1637 -0.1614  0.5663
  994SOL    HW1 3023   2.853   1.723   1.903  1.1554  0.7215  0.3650
  994SOL    HW2 3024   2.796   1.773   1.772 -0.4695 -0.3634  0.6255
  995SOL     OW 3025   3.472   1.578   1.597 -0.2312 -0.1306 -0.5086
  995SOL    HW1 3026   3.424   1.641   1.542  0.9634  2.8675  1.6328
  995SOL    HW2 3027   3.562   1.609   1.596  0.2300 -1.2438  1.4549
  996SOL     OW 3028   2.319   5.191   1.886  0.4289 -0.0010 -0.0855
  996SOL    HW1 3029   2.272   5.182   1.969  0.7550  1.1152  0.2376
  996SOL    HW2 3030   2.396   5.135   1.896  1.6735  1.8448  1.2985
  997SOL     OW 3031   2.674   1.328   0.971 -0.0508  0.1355 -0.6081
  997SOL    HW1 3032   2.684   1.234   0.961 -0.6790  0.0263 -0.2523
  997SOL    HW2 3033   2.668   1.341   1.066 -0.1362  0.5144 -0.6646
  998SOL     OW 3034   2.480   0.865   1.172 -0.0309 -0.7163  0.2358
  998SOL    HW1 3035   2.456   0.926   1.242  1.6090  1.7971 -1.2007
  998SOL    HW2 3036   2.398   0.827   1.143 -1.7056  3.1749 -0.7669
  999SOL     OW 3037   2.163   0.908   1.134 -0.5043 -0.6248  0.0581
  999SOL    HW1 3038   2.183   0.901   1.041  1.1404 -0.5638  0.3752
  999SOL    HW2 3039   2.072   0.880   1.141 -0.6869 -0.5430 -1.5738
 1000SOL     OW 3040   2.981   4.778   1.292  0.2786 -0.1441 -0.7524
 1000SOL    HW1 3041   3.035   4.731   1.229 -0.7056 -2.0145 -0.2543
 1000SOL    HW2 3042   2.891   4.766   1.261 -0.0260  1.4407 -0.6011
 1001SOL     OW 3043   2.734   4.804   1.156 -0.2426  0.4574  0.4645
 1001SOL    HW1 3044   2.714   4.812   1.063 -1.2804  0.4758  0.6776
 1001SOL    HW2 3045   2.685   4.875   1.198 -0.6968 -0.2437  1.1485
 1002SOL     OW 3046   4.113   3.301   2.933 -0.5736  0.3002 -0.4031
 1002SOL    HW1 3047   4.021   3.285   2.953  0.2787 -2.2587  2.1637
 1002SOL    HW2 3048   4.146   3.347   3.011  0.9414 -1.6823  0.1985
 1003SOL     OW 3049   1.862   1.582   0.515 -0.1192 -0.0566  0.2916
 1003SOL    HW1 3050   1.856   1.531   0.596  1.5994 -0.1985  0.3648
 1003SOL    HW2 3051   1.788   1.643   0.520  0.1058  0.1317  2.1073
 1004SOL     OW 3052   2.221   1.203   1.137 -0.0946  0.1462  0.8288
 1004SOL    HW1 3053   2.292   1.226   1.077 -1.0673  0.3556 -0.2900
 1004SOL    HW2 3054   2.222   1.107   1.139 -0.9603  0.0630 -0.7292
 1005SOL     OW 3055   3.219   1.050   0.960 -0.3641 -0.0285 -0.1945
 1005SOL    HW1 3056   3.211   1.051   0.864 -0.1170  3.8831 -0.3334
 1005SOL    HW2 3057   3.255   0.964   0.980  1.5959 -0.2559 -3.8170
 1006SOL     OW 3058   1.960   0.708   0.908 -0.0377 -0.2784 -0.2289
 1006SOL    HW1 3059   1.917   0.789   0.879 -1.9139 -0.7141  1.1661
 1006SOL    HW2 3060   1.903   0.638   0.875  1.7911 -1.1250 -1.7899
 1007SOL     OW 3061   1.955   4.930   1.774  0.1754  0.3017  0.2430
 1007SOL    HW1 3062   1.998   4.938   1.859 -0.0016 -0.9935  0.4808
 1007SOL    HW2 3063   1.883   4.869   1.790  0.2187 -0.0519 -0.8571
 1008SOL     OW 3064   2.947   5.192   2.062 -0.1303 -0.4789 -0.1048
 1008SOL    HW1 3065   3.009   5.228   2.125 -0.2799 -1.0408  0.3671
 1008SOL    HW2 3066   2.992   5.198   1.978 -0.7257  2.2602 -0.3121
 1009SOL     OW 3067   3.518   1.239   0.887  0.2715  0.1655 -0.2915
 1009SOL    HW1 3068   3.426   1.235   0.915  0.4416  1.2026  0.5017
 1009SOL    HW2 3069   3.552   1.152   0.905 -0.3929 -0.0378  0.0431
 1010SOL     OW 3070   2.130   1.707   1.605 -0.2393  0.4395  0.3427
 1010SOL    HW1 3071   2.141   1.729   1.512  1.6825  2.0309  0.8863
 1010SOL    HW2 3072   2.123   1.611   1.606 -1.4191  0.4569 -1.5008
 1011SOL     OW 3073   2.577   4.913   1.398  0.2721 -0.2606 -0.4557
 1011SOL    HW1 3074   2.575   4.818   1.410 -1.0511 -0.0709  1.1086
 1011SOL    HW2 3075   2.485   4.939   1.392  0.3578  1.2657  2.6998
 1012SOL     OW 3076   2.276   1.697   0.974 -0.3555  0.1657 -0.3469
 1012SOL    HW1 3077   2.367   1.727   0.967 -0.0764 -0.6277 -0.2791
 1012SOL    HW2 3078   2.228   1.773   1.007  0.9121 -0.3742  3.2410
 1013SOL     OW 3079   2.253   0.623   0.284 -0.2178  0.4645 -0.5658
 1013SOL    HW1 3080   2.184   0.560   0.264  0.4891 -0.4801 -0.1291
 1013SOL    HW2 3081   2.207   0.697   0.323 -1.0009 -0.1423 -0.2904
 1014SOL     OW 3082   1.783   1.457   1.256  0.9257 -0.4751 -0.3185
 1014SOL    HW1 3083   1.738   1.501   1.185  0.7983  0.7912  0.5173
 1014SOL    HW2 3084   1.809   1.372   1.220  0.0078 -0.2472 -1.5503
 1015SOL     OW 3085   3.024   1.215   1.349 -0.3019 -0.0264 -0.3322
 1015SOL    HW1 3086   2.991   1.172   1.270 -1.3423 -1.0661  0.6331
 1015SOL    HW2 3087   2.954   1.274   1.376 -0.2889 -0.2701  0.2556
 1016SOL     OW 3088   3.200   1.057   0.142  0.2046  0.0663  0.0425
 1016SOL    HW1 3089   3.142   1.133   0.135 -1.0218 -0.7752  0.5928
 1016SOL    HW2 3090   3.232   1.060   0.232  0.2348 -0.0212  0.0346
 1017SOL     OW 3091   3.566   2.107   1.225 -0.2863  0.2031  0.0675
 1017SOL    HW1 3092   3.547   2.041   1.158 -1.8599  0.3804  0.2873
 1017SOL    HW2 3093   3.626   2.168   1.182 -1.6574  0.5935 -1.4001
 1018SOL     OW 3094   2.976   1.649   0.910  0.3882  0.0252  0.2235
 1018SOL    HW1 3095   2.983   1.633   1.005  1.5773 -1.7666 -0.1063
 1018SOL    HW2 3096   2.898   1.601   0.884  0.1212  0.4299  0.2755
 1019SOL     OW 3097   2.116   5.228   1.674  0.4008 -0.3434 -0.2297
 1019SOL    HW1 3098   2.190   5.216   1.733  1.6842  0.6599 -1.5714
 1019SOL    HW2 3099   2.147   5.197   1.589 -1.1914 -1.1674 -0.5393
 1020SOL     OW 3100   2.601   1.756   1.576 -0.2896 -0.4855  0.1456
 1020SOL    HW1 3101   2.557   1.757   1.491  1.3112 -2.4046 -0.7950
 1020SOL    HW2 3102   2.620   1.664   1.592  1.7507  0.0754  1.3358
 1021SOL     OW 3103   3.878   4.625   0.947 -0.8886  0.0619  0.3214
 1021SOL    HW1 3104   3.790   4.606   0.979 -0.7757 -2.0952 -0.4817
 1021SOL    HW2 3105   3.868   4.627   0.851 -0.3447  1.4618  0.2785
 1022SOL     OW 3106   3.497   2.337   0.579  0.3681  0.0673  0.4245
 1022SOL    HW1 3107   3.415   2.342   0.530  1.1501  0.4935 -0.8816
 1022SOL    HW2 3108   3.474   2.367   0.667 -1.5858 -2.9977  1.0952
 1023SOL     OW 3109   2.257   1.758   1.977  0.4209  0.3713  0.5786
 1023SOL    HW1 3110   2.267   1.784   2.069  0.1371  0.3494  0.6190
 1023SOL    HW2 3111   2.165   1.777   1.958  0.3803  0.0107  0.4128
 1024SOL     OW 3112   3.232   1.351   1.257 -0.0680 -0.4893 -0.2491
 1024SOL    HW1 3113   3.267   1.370   1.344  0.2672 -1.8126 -0.0766
 1024SOL    HW2 3114   3.149   1.306   1.275  0.2920 -1.2946 -0.6023
 1025SOL     OW 3115   2.869   1.422   1.433  0.1948 -0.0995  0.3788
 1025SOL    HW1 3116   2.945   1.398   1.486 -0.6127 -1.3776  1.0084
 1025SOL    HW2 3117   2.817   1.480   1.489  0.9681  1.2814 -0.2754
 1026SOL     OW 3118   3.197   1.612   1.158  0.1366  0.4126 -0.0598
 1026SOL    HW1 3119   3.232   1.523   1.168  0.2354  0.6211  1.7554
 1026SOL    HW2 3120   3.107   1.606   1.189 -0.6235  0.4747 -2.1342
 1027SOL     OW 3121   3.568   4.338   1.143  0.1130 -0.3674 -0.1738
 1027SOL    HW1 3122   3.553   4.245   1.128  0.3039 -0.5443  0.7059
 1027SOL    HW2 3123   3.607   4.343   1.230  1.1259  0.4403 -0.6464
 1028SOL     OW 3124   1.915   5.076   1.194 -0.1668 -0.1442 -0.3800
 1028SOL    HW1 3125   1.911   5.043   1.104  2.3813 -0.3972 -0.4842
 1028SOL    HW2 3126   1.916   4.997   1.248  3.1877 -0.2958 -0.4791
 1029SOL     OW 3127   2.871   5.453   1.601 -0.1674  0.1822 -0.4189
 1029SOL    HW1 3128   2.870   5.530   1.657 -1.2056  0.9763 -1.4647
 1029SOL    HW2 3129   2.828   5.481   1.520 -1.9602 -1.8722 -0.3000
 1030SOL     OW 3130   2.097   1.424   1.624  0.1561 -0.2293  0.1886
 1030SOL    HW1 3131   2.085   1.343   1.674  0.6537 -1.0311 -0.9274
 1030SOL    HW2 3132   2.085   1.397   1.533  0.2870  0.9793 -0.2064
 1031SOL     OW 3133   3.360   1.364   1.477  1.2554 -0.4455 -0.0655
 1031SOL    HW1 3134   3.392   1.439   1.526  0.9545 -0.8524  0.7796
 1031SOL    HW2 3135   3.436   1.331   1.430  1.3441  0.5016 -0.6191
 1032SOL     OW 3136   2.748   1.205   0.623 -0.1653 -0.3127 -0.1493
 1032SOL    HW1 3137   2.656   1.202   0.650 -0.2137 -2.3497 -0.3705
 1032SOL    HW2 3138   2.758   1.291   0.581 -1.2919  1.0112  2.0647
 1033SOL     OW 3139   3.063   0.434   0.370 -0.4529  0.6341  0.1194
 1033SOL    HW1 3140   2.977   0.421   0.411  0.0329  0.0635  0.9919
 1033SOL    HW2 3141   3.061   0.377   0.293 -1.0179  0.9660 -0.1171
 1034SOL     OW 3142   2.371   1.305   0.946  0.2548  0.8125 -0.0535
 1034SOL    HW1 3143   2.462   1.325   0.925  0.5673  0.3450  0.7900
 1034SOL    HW2 3144   2.321   1.372   0.901  1.0215  1.1525 -0.4289
 1035SOL     OW 3145   1.883   1.088   0.259 -0.2531 -0.8960  0.7699
 1035SOL    HW1 3146   1.834   1.166   0.283  0.6538 -0.1364  0.2097
 1035SOL    HW2 3147   1.973   1.118   0.248 -0.0043 -1.8923 -0.1090
 1036SOL     OW 3148   2.513   5.426   1.889  0.1480  0.4693 -0.6271
 1036SOL    HW1 3149   2.581   5.396   1.829 -0.1762  1.5644 -1.5893
 1036SOL    HW2 3150   2.449   5.355   1.890  1.4986 -0.8100  0.7005
 1037SOL     OW 3151   2.543   4.569   1.460 -0.5156  0.1873 -0.6750
 1037SOL    HW1 3152   2.612   4.523   1.412  0.6314  1.8878 -0.7571
 1037SOL    HW2 3153   2.588   4.642   1.502 -2.1492  0.8933 -0.0694
 1038SOL     OW 3154   4.381   2.414   2.872 -0.1356 -0.0107  0.2262
 1038SOL    HW1 3155   4.376   2.480   2.802 -1.2853  1.7049  1.8146
 1038SOL    HW2 3156   4.289   2.392   2.890  0.2126 -1.5840  0.1987
 1039SOL     OW 3157   2.988   5.200   1.575  0.1510 -0.5919  0.3106
 1039SOL    HW1 3158   2.955   5.289   1.588  0.9625 -0.1314 -0.6891
 1039SOL    HW2 3159   2.919   5.156   1.527  0.3223 -0.0900 -0.4072
 1040SOL     OW 3160   2.184   4.642   0.495  1.0052  0.4836 -0.0872
 1040SOL    HW1 3161   2.157   4.609   0.409 -0.9097  2.6129 -0.3961
 1040SOL    HW2 3162   2.263   4.693   0.478  1.7305 -0.6341 -0.2186
 1041SOL     OW 3163   2.306   1.151   1.599 -0.2215 -0.3711 -0.0764
 1041SOL    HW1 3164   2.342   1.169   1.685  0.5338 -0.9297 -0.2662
 1041SOL    HW2 3165   2.211   1.154   1.612 -0.1492  1.7516  0.2799
 1042SOL     OW 3166   3.510   2.110   0.760  0.0171 -0.5084  0.6405
 1042SOL    HW1 3167   3.516   2.197   0.722  0.1344 -0.7778  0.0396
 1042SOL    HW2 3168   3.419   2.083   0.745  0.0244 -0.5549  0.6785
 1043SOL     OW 3169   2.824   5.051   1.754 -0.3943  0.0081 -0.4269
 1043SOL    HW1 3170   2.912   5.023   1.729  0.6995  1.9973  0.8191
 1043SOL    HW2 3171   2.801   4.996   1.829  0.1515 -0.0092 -0.2681
 1044SOL     OW 3172   3.126   5.171   1.848  0.0845  0.3064 -0.0571
 1044SOL    HW1 3173   3.086   5.151   1.763 -0.7709 -0.2059  0.4589
 1044SOL    HW2 3174   3.153   5.262   1.841 -1.1204  0.6512 -0.4388
 1045SOL     OW 3175   2.754   1.827   1.260  0.0594  0.4151  0.2768
 1045SOL    HW1 3176   2.684   1.839   1.325 -0.5179 -0.6240 -0.1284
 1045SOL    HW2 3177   2.717   1.860   1.179  0.2452  0.3891  0.1817
 1046SOL     OW 3178   3.334   4.945   1.414 -0.1197 -0.5317  0.6058
 1046SOL    HW1 3179   3.305   5.014   1.475 -0.3216  0.3523 -0.4552
 1046SOL    HW2 3180   3.296   4.971   1.330  3.8202  0.8742 -0.9796
 1047SOL     OW 3181   3.301   0.739   0.782  0.0689  0.6509  0.1474
 1047SOL    HW1 3182   3.369   0.751   0.715  0.4738 -0.9805  0.2327
 1047SOL    HW2 3183   3.350   0.715   0.861 -0.5254  0.9151  0.6037
 1048SOL     OW 3184   2.515   4.549   0.864  0.9124  0.5522 -0.6217
 1048SOL    HW1 3185   2.487   4.641   0.870  0.6519  0.4381 -0.0576
 1048SOL    HW2 3186   2.500   4.526   0.772  0.4844  0.9168 -0.6489
 1049SOL     OW 3187   3.648   4.853   1.532  0.4471 -0.7068  0.0203
 1049SOL    HW1 3188   3.596   4.812   1.602 -0.6676 -0.6204 -0.7351
 1049SOL    HW2 3189   3.590   4.920   1.496  1.2163 -0.3843 -0.6279
 1050SOL     OW 3190   3.516   5.157   1.694 -0.2658 -0.3938  0.2906
 1050SOL    HW1 3191   3.451   5.142   1.625  0.1734 -1.0367  0.0114
 1050SOL    HW2 3192   3.497   5.245   1.726 -0.6994 -0.2273 -0.4096
 1051SOL     OW 3193   2.488   1.352   0.623  0.2901 -0.3178 -0.1803
 1051SOL    HW1 3194   2.412   1.314   0.579  0.8232  0.5244 -1.9040
 1051SOL    HW2 3195   2.493   1.441   0.590  2.3215 -0.5122 -0.5170
 1052SOL     OW 3196   2.934   1.015   0.800  0.4164 -0.2658 -0.1530
 1052SOL    HW1 3197   2.983   0.952   0.747 -0.3956 -0.1271 -1.0756
 1052SOL    HW2 3198   2.876   1.060   0.739 -0.4402  0.0020  0.8192
 1053SOL     OW 3199   4.098   1.926   0.681  0.6582  0.3283  0.0452
 1053SOL    HW1 3200   4.168   1.940   0.617  0.3562 -1.5921 -0.7660
 1053SOL    HW2 3201   4.143   1.925   0.766  1.2849  1.3157 -0.2576
 1054SOL     OW 3202   1.937   5.832   2.114 -0.6860  0.1052  0.5105
 1054SOL    HW1 3203   1.868   5.876   2.064 -2.0758  1.0274  3.0759
 1054SOL    HW2 3204   1.891   5.766   2.166  0.6135 -0.4495  1.0062
 1055SOL     OW 3205   2.039   1.163   0.621  0.3311 -0.2087  0.0271
 1055SOL    HW1 3206   2.065   1.255   0.613  1.8988 -0.5987  0.2018
 1055SOL    HW2 3207   2.115   1.121   0.662  0.1774 -1.8131 -1.2546
 1056SOL     OW 3208   2.677   1.445   1.220 -0.3017 -0.2273 -0.8836
 1056SOL    HW1 3209   2.734   1.404   1.285 -0.5536 -0.1587 -0.6186
 1056SOL    HW2 3210   2.611   1.491   1.272  1.1851  2.3535 -1.0868
 1057SOL     OW 3211   3.697   4.580   1.429  0.3140 -0.2326  0.2329
 1057SOL    HW1 3212   3.634   4.642   1.391 -1.3215 -1.7147  0.3915
 1057SOL    HW2 3213   3.746   4.633   1.492  0.7778  1.4794 -1.4534
 1058SOL     OW 3214   2.440   4.818   0.872 -0.0374 -0.1518  0.1741
 1058SOL    HW1 3215   2.523   4.866   0.864  0.3316 -0.8757 -0.4115
 1058SOL    HW2 3216   2.375   4.877   0.834  0.0965  0.6728  1.1597
 1059SOL     OW 3217   3.671   1.623   0.738 -0.0212  0.6479 -0.5321
 1059SOL    HW1 3218   3.656   1.717   0.746  1.8594  1.0092 -0.8428
 1059SOL    HW2 3219   3.617   1.597   0.663 -1.1393  1.3060  0.0134
 1060SOL     OW 3220   2.184   5.173   1.413 -0.2218  0.4766  0.0876
 1060SOL    HW1 3221   2.215   5.083   1.414 -1.8357 -0.1386  1.9548
 1060SOL    HW2 3222   2.170   5.193   1.320 -1.1314 -1.6953 -0.3047
 1061SOL     OW 3223   2.780   1.449   0.525  0.0015 -0.3651 -0.3064
 1061SOL    HW1 3224   2.815   1.504   0.595  0.9412 -0.7602 -0.4450
 1061SOL    HW2 3225   2.735   1.510   0.466 -0.0903  0.0747  0.2146
 1062SOL     OW 3226   3.378   4.602   1.273 -0.0998 -0.2810  0.8894
 1062SOL    HW1 3227   3.413   4.564   1.193 -0.7619  0.3683  0.2852
 1062SOL    HW2 3228   3.313   4.666   1.244  0.8571  1.2155  1.8536
 1063SOL     OW 3229   3.235   4.436   1.079 -0.2406  0.3353  0.4659
 1063SOL    HW1 3230   3.153   4.419   1.033  0.4292 -2.6532  0.1538
 1063SOL    HW2 3231   3.255   4.354   1.123  2.9360  0.7018 -0.0428
 1064SOL     OW 3232   2.260   1.569   1.220 -0.1369  0.2126 -0.2312
 1064SOL    HW1 3233   2.266   1.612   1.135  2.1109  1.8126  0.6497
 1064SOL    HW2 3234   2.243   1.477   1.200 -1.3902  0.8328 -2.3060
 1065SOL     OW 3235   3.584   0.786   0.431  0.4525 -0.1125 -0.4885
 1065SOL    HW1 3236   3.613   0.871   0.397 -0.3696  0.7734  0.8944
 1065SOL    HW2 3237   3.571   0.802   0.525 -0.3359 -1.6105 -0.3189
 1066SOL     OW 3238   3.150   4.687   1.102 -0.4701 -0.0046 -0.0298
 1066SOL    HW1 3239   3.172   4.594   1.104 -0.8236 -0.0824  1.8138
 1066SOL    HW2 3240   3.152   4.710   1.009  0.2236 -1.6966 -0.4736
 1067SOL     OW 3241   1.754   0.850   0.244  0.7079  0.5241  0.0292
 1067SOL    HW1 3242   1.772   0.944   0.244  0.9452  0.4818  0.5135
 1067SOL    HW2 3243   1.798   0.817   0.166  2.1398  0.5418  0.7910
 1068SOL     OW 3244   2.326   4.993   2.377  0.1702  0.4621  0.1625
 1068SOL    HW1 3245   2.417   4.967   2.390  0.4034  0.4708 -1.3188
 1068SOL    HW2 3246   2.283   4.913   2.347  0.1434  0.9181 -1.0771
 1069SOL     OW 3247   1.992   4.500   2.873 -0.2612 -0.0544  0.2014
 1069SOL    HW1 3248   2.019   4.494   2.964 -0.5326 -0.0921  0.2809
 1069SOL    HW2 3249   2.070   4.476   2.823 -0.0480  0.1816  0.4172
 1070SOL     OW 3250   1.695   4.724   2.268 -0.3426  0.0422 -0.6514
 1070SOL    HW1 3251   1.732   4.794   2.322  1.0067 -0.0107 -1.4512
 1070SOL    HW2 3252   1.671   4.655   2.330 -0.2960  0.6080  0.0067
 1071SOL     OW 3253   2.196   5.599   3.038  0.2767  0.3267 -0.0695
 1071SOL    HW1 3254   2.197   5.511   3.000 -1.3232 -0.2918  1.2103
 1071SOL    HW2 3255   2.287   5.616   3.062  0.0630 -3.1154  4.2574
 1072SOL     OW 3256   3.555   5.587   2.329 -0.0951  0.1767  0.2192
 1072SOL    HW1 3257   3.612   5.521   2.369  1.6205  1.6465  0.3328
 1072SOL    HW2 3258   3.598   5.609   2.247 -2.3782 -1.1456 -1.4328
 1073SOL     OW 3259   0.970   2.839   0.103 -0.3745  0.0557  0.3867
 1073SOL    HW1 3260   0.941   2.886   0.025 -2.6424 -0.8373  0.6123
 1073SOL    HW2 3261   0.984   2.907   0.169 -0.2274  0.6715 -0.2657
 1074SOL     OW 3262   3.957   4.822   2.287  0.6815  0.2612  0.6059
 1074SOL    HW1 3263   4.045   4.819   2.249  0.0435 -1.5149 -0.8768
 1074SOL    HW2 3264   3.918   4.901   2.250  0.5762 -0.6622 -1.3637
 1075SOL     OW 3265   2.240   5.327   2.909 -0.6338 -0.0102 -0.1565
 1075SOL    HW1 3266   2.299   5.297   2.840 -2.5984 -1.6739 -1.1992
 1075SOL    HW2 3267   2.271   5.284   2.988 -1.8058 -2.8698 -1.1439
 1076SOL     OW 3268   2.557   5.043   2.659  0.2568 -0.4749  0.4800
 1076SOL    HW1 3269   2.612   5.060   2.735  0.8088  0.2282 -0.0639
 1076SOL    HW2 3270   2.485   4.990   2.693  1.6772 -2.1624  1.0621
 1077SOL     OW 3271   6.050   5.600   2.772  0.3662  0.2299  0.1604
 1077SOL    HW1 3272   6.106   5.554   2.710 -1.3341  0.3359 -1.5370
 1077SOL    HW2 3273   6.091   5.686   2.784  1.0784 -0.0471 -0.2634
 1078SOL     OW 3274   3.692   4.981   2.810  0.6433 -0.0530  0.3854
 1078SOL    HW1 3275   3.750   4.959   2.883 -0.0209 -0.4486  0.8044
 1078SOL    HW2 3276   3.605   4.961   2.843  0.2498  0.7353 -0.1656
 1079SOL     OW 3277   5.982   6.008   2.642  0.3730  0.0659  0.3139
 1079SOL    HW1 3278   5.893   5.974   2.632 -1.0339  3.4635 -0.2211
 1079SOL    HW2 3279   6.036   5.952   2.586 -1.9745 -0.4050 -1.6389
 1080SOL     OW 3280   1.792   5.902   2.450  0.1821 -0.1267  0.1850
 1080SOL    HW1 3281   1.881   5.914   2.419 -0.0786 -0.5769 -0.7827
 1080SOL    HW2 3282   1.743   5.975   2.412  0.1351  0.1262  0.7225
 1081SOL     OW 3283   2.160   4.969   2.886  0.1686 -0.4601  0.2633
 1081SOL    HW1 3284   2.065   4.959   2.878 -0.1315  2.4139 -0.9737
 1081SOL    HW2 3285   2.172   5.022   2.965  0.9759 -2.6658  1.6974
 1082SOL     OW 3286   2.367   5.539   2.320  0.5096 -0.0853  0.1590
 1082SOL    HW1 3287   2.399   5.630   2.318  1.9086 -0.5588 -1.2586
 1082SOL    HW2 3288   2.446   5.486   2.322 -0.2678 -1.2918 -0.3404
 1083SOL     OW 3289   2.178   4.795   2.271  0.3451 -0.6031  0.1239
 1083SOL    HW1 3290   2.178   4.700   2.282 -0.1829 -0.6467 -0.2174
 1083SOL    HW2 3291   2.132   4.809   2.188  0.5256 -0.0565  0.1134
 1084SOL     OW 3292   3.568   1.991   2.211  0.5911 -0.3438  0.4106
 1084SOL    HW1 3293   3.559   1.924   2.144  0.6721 -0.7893  0.8449
 1084SOL    HW2 3294   3.658   2.023   2.202  0.8264 -0.8991  0.7720
 1085SOL     OW 3295   1.994   1.827   1.964  0.3379  0.0448 -0.7089
 1085SOL    HW1 3296   1.926   1.759   1.953  0.1793  0.2877 -1.2753
 1085SOL    HW2 3297   1.964   1.879   2.038  1.1647 -1.3300  0.6436
 1086SOL     OW 3298   3.604   5.236   2.708 -0.3598  0.4499  0.4610
 1086SOL    HW1 3299   3.587   5.152   2.750  0.1489  0.2779  0.3297
 1086SOL    HW2 3300   3.567   5.226   2.620  0.5090  0.0293  0.1304
 1087SOL     OW 3301   3.550   5.108   2.438  0.1653 -0.4462  0.1655
 1087SOL    HW1 3302   3.575   5.165   2.366  2.4072 -0.8391  0.5663
 1087SOL    HW2 3303   3.464   5.075   2.413  0.4834  0.1261 -1.8910
 1088SOL     OW 3304   2.623   5.460   2.858  0.0153 -0.9150  0.1507
 1088SOL    HW1 3305   2.539   5.508   2.861  1.2279  1.3856  0.0663
 1088SOL    HW2 3306   2.631   5.432   2.767 -0.3370 -0.4889 -0.0159
 1089SOL     OW 3307   1.368   3.588   0.325  0.1197  0.3097  0.1730
 1089SOL    HW1 3308   1.455   3.610   0.357 -0.3052  0.5398  1.2004
 1089SOL    HW2 3309   1.313   3.662   0.351 -0.4525  0.0083 -0.1509
 1090SOL     OW 3310   2.343   4.043   2.023  0.2919  0.3302  0.2242
 1090SOL    HW1 3311   2.433   4.068   2.001  1.7393 -1.1976  3.7318
 1090SOL    HW2 3312   2.348   4.008   2.111 -3.8388  0.2707  0.6528
 1091SOL     OW 3313   3.267   5.136   2.257  0.3371 -0.1032 -0.7282
 1091SOL    HW1 3314   3.196   5.199   2.268  0.5790  0.0465  0.0083
 1091SOL    HW2 3315   3.264   5.082   2.336  0.4196 -0.7408 -1.1457
 1092SOL     OW 3316   3.198   5.768   2.755 -0.7493 -0.0555  0.2567
 1092SOL    HW1 3317   3.120   5.715   2.738  0.6518 -2.1297 -0.0329
 1092SOL    HW2 3318   3.212   5.817   2.674 -1.5180  0.0905  0.1967
 1093SOL     OW 3319   3.402   2.126   2.394  0.1842 -0.3870 -0.2825
 1093SOL    HW1 3320   3.458   2.150   2.467  0.7676 -0.1071 -0.8146
 1093SOL    HW2 3321   3.459   2.078   2.334  0.0005  0.3567 -1.0742
 1094SOL     OW 3322   2.968   5.601   1.967  0.1435  0.1432 -0.0200
 1094SOL    HW1 3323   2.963   5.660   2.042 -2.1419 -0.2160  0.1726
 1094SOL    HW2 3324   2.883   5.557   1.965  1.9166 -3.6916  0.2207
 1095SOL     OW 3325   3.115   4.633   2.588 -0.2856 -0.0247  0.1080
 1095SOL    HW1 3326   3.050   4.565   2.605 -0.2159 -0.7499 -2.2255
 1095SOL    HW2 3327   3.198   4.586   2.584 -0.0420  0.4171 -0.0778
 1096SOL     OW 3328   3.304   1.756   2.283 -0.1311 -0.0147  0.0059
 1096SOL    HW1 3329   3.268   1.803   2.358 -1.6515  0.6054 -1.0745
 1096SOL    HW2 3330   3.386   1.802   2.263  0.5564 -0.5019  1.5564
 1097SOL     OW 3331   2.927   5.530   2.372 -0.8052 -0.0889 -0.1176
 1097SOL    HW1 3332   2.971   5.609   2.404 -0.0183 -0.2115 -0.8548
 1097SOL    HW2 3333   2.900   5.483   2.451  0.3080  0.0376  0.3589
 1098SOL     OW 3334   2.207   4.557   2.571  0.2539 -0.5448  0.0575
 1098SOL    HW1 3335   2.210   4.494   2.642 -1.0074 -0.1398  0.5054
 1098SOL    HW2 3336   2.114   4.581   2.564  0.6679  1.1161 -0.2200
 1099SOL     OW 3337   2.505   4.972   2.129 -0.2958  0.2795 -0.1448
 1099SOL    HW1 3338   2.549   4.950   2.212  0.2573  2.5272  0.2154
 1099SOL    HW2 3339   2.414   4.985   2.153 -0.1342  0.9387  0.1278
 1100SOL     OW 3340   3.335   5.437   2.470  0.0908 -0.5582 -0.5547
 1100SOL    HW1 3341   3.426   5.466   2.468  0.0011 -0.2664 -0.3782
 1100SOL    HW2 3342   3.299   5.463   2.385 -0.1270  0.2985 -0.2081
 1101SOL     OW 3343   2.379   3.731   2.727  0.1855  0.0711 -0.3396
 1101SOL    HW1 3344   2.376   3.720   2.822 -0.0716 -2.2581 -0.5570
 1101SOL    HW2 3345   2.471   3.717   2.705  0.3688  1.2643 -0.4070
 1102SOL     OW 3346   2.916   1.824   2.475  0.0522  0.2573  0.0469
 1102SOL    HW1 3347   3.009   1.842   2.481  0.0830 -0.0401  0.5548
 1102SOL    HW2 3348   2.883   1.838   2.564 -0.3130 -0.0038 -0.0438
 1103SOL     OW 3349   2.109   5.944   2.791  0.3167 -0.1586 -0.2214
 1103SOL    HW1 3350   2.200   5.970   2.773  0.8448  0.3471  2.7440
 1103SOL    HW2 3351   2.058   6.023   2.772  0.7648  0.1931  0.0104
 1104SOL     OW 3352   3.623   5.432   2.885  0.0465  0.0943  0.1832
 1104SOL    HW1 3353   3.614   5.363   2.819  0.3790  0.3851 -0.1705
 1104SOL    HW2 3354   3.600   5.512   2.839 -0.8711  0.1658  0.7379
 1105SOL     OW 3355   2.124   5.355   2.441  0.1070  0.4483  0.7810
 1105SOL    HW1 3356   2.160   5.404   2.367  1.5928  0.8997  1.7422
 1105SOL    HW2 3357   2.202   5.324   2.488 -0.7543 -2.6430  0.3767
 1106SOL     OW 3358   3.447   4.933   2.889 -0.5993  0.1708 -0.3438
 1106SOL    HW1 3359   3.376   4.989   2.856  0.7782  1.4669 -1.2368
 1106SOL    HW2 3360   3.405   4.879   2.956 -2.4949  0.6622 -1.0557
 1107SOL     OW 3361   3.007   1.479   2.158 -0.5711 -0.3894  0.3309
 1107SOL    HW1 3362   2.974   1.495   2.246 -0.5378 -1.3052  0.5268
 1107SOL    HW2 3363   2.995   1.561   2.111  0.8824  0.6300  1.6425
 1108SOL     OW 3364   3.430   1.417   1.836 -0.2828  0.4705 -0.3902
 1108SOL    HW1 3365   3.381   1.473   1.776 -0.6114 -0.2026 -0.7590
 1108SOL    HW2 3366   3.486   1.364   1.779 -1.1140 -0.6793 -0.1692
 1109SOL     OW 3367   2.240   1.871   2.274 -0.2401 -0.4207 -0.1165
 1109SOL    HW1 3368   2.171   1.805   2.279  0.3301 -0.9650  0.7496
 1109SOL    HW2 3369   2.291   1.859   2.354  1.2614 -0.4664 -1.0450
 1110SOL     OW 3370   2.985   4.360   2.347  0.1097 -0.1760  0.1102
 1110SOL    HW1 3371   2.892   4.372   2.366  0.6587  1.6203  2.0030
 1110SOL    HW2 3372   2.986   4.308   2.267 -2.5069 -0.5066  0.1929
 1111SOL     OW 3373   2.838   5.687   2.941  0.5003 -0.1018  0.2900
 1111SOL    HW1 3374   2.793   5.770   2.932 -0.9361 -1.0019 -1.7110
 1111SOL    HW2 3375   2.796   5.629   2.876  3.4855 -1.4692 -0.6565
 1112SOL     OW 3376   2.330   5.198   2.543  0.2972  0.1556 -0.2641
 1112SOL    HW1 3377   2.300   5.126   2.488 -0.9099 -0.4454  1.1107
 1112SOL    HW2 3378   2.418   5.171   2.572  0.9249  0.4603 -1.8105
 1113SOL     OW 3379   2.505   3.882   1.702  0.2565  0.0078 -0.0763
 1113SOL    HW1 3380   2.516   3.807   1.760  1.2276  0.4748  0.3615
 1113SOL    HW2 3381   2.536   3.957   1.753  2.3211  0.2701 -1.5840
 1114SOL     OW 3382   0.554   3.333   0.122  0.2116  0.0827  0.2534
 1114SOL    HW1 3383   0.576   3.241   0.128 -1.6459 -0.3861  0.5348
 1114SOL    HW2 3384   0.574   3.357   0.031 -1.4648 -1.2636 -0.5441
 1115SOL     OW 3385   2.763   4.636   2.610  0.3927  0.4909 -0.1563
 1115SOL    HW1 3386   2.774   4.622   2.704  1.8549 -2.2101 -0.6086
 1115SOL    HW2 3387   2.669   4.624   2.595  0.4535 -1.4255  0.7132
 1116SOL     OW 3388   2.205   4.307   2.161 -0.3982 -0.1298  0.0783
 1116SOL    HW1 3389   2.269   4.292   2.231  0.4156 -1.8019 -0.9832
 1116SOL    HW2 3390   2.228   4.245   2.093 -0.6811  1.9528 -2.0572
 1117SOL     OW 3391   3.205   5.428   1.870  0.4690  0.2509  0.0748
 1117SOL    HW1 3392   3.141   5.498   1.881 -0.8183 -0.7482 -0.8299
 1117SOL    HW2 3393   3.240   5.414   1.958 -2.0888 -0.5955  1.0365
 1118SOL     OW 3394   2.190   4.447   1.804 -0.0594 -0.1379 -0.6080
 1118SOL    HW1 3395   2.126   4.392   1.757 -0.1796 -1.1067  0.6552
 1118SOL    HW2 3396   2.275   4.417   1.771 -0.1522 -0.6013 -0.4313
 1119SOL     OW 3397   3.056   4.627   2.306 -0.1892 -0.1071  0.8447
 1119SOL    HW1 3398   3.022   4.620   2.217 -2.5988  0.6459  1.6451
 1119SOL    HW2 3399   3.051   4.538   2.341 -0.3481 -0.1874  0.6195
 1120SOL     OW 3400   3.219   5.951   2.534  0.4252 -0.1048  0.3558
 1120SOL    HW1 3401   3.150   5.934   2.470  0.7020 -1.2799  0.3367
 1120SOL    HW2 3402   3.218   6.045   2.547 -2.0660 -0.2043  1.3659
 1121SOL     OW 3403   2.350   4.857   2.741  0.0504 -0.1815  0.9327
 1121SOL    HW1 3404   2.289   4.892   2.806 -1.7501  0.9965 -1.2652
 1121SOL    HW2 3405   2.301   4.855   2.659  1.4907 -3.8315 -0.0265
 1122SOL     OW 3406   3.197   1.894   2.535  0.0794 -0.0394  0.3235
 1122SOL    HW1 3407   3.188   1.986   2.509  0.0828 -0.1109  0.0571
 1122SOL    HW2 3408   3.194   1.895   2.630  0.0845  0.2383  0.3222
 1123SOL     OW 3409   2.708   4.867   1.965  0.1090 -0.0411  0.2178
 1123SOL    HW1 3410   2.632   4.887   2.019  1.4223  0.3332  1.9999
 1123SOL    HW2 3411   2.782   4.869   2.025  1.3839 -1.7815 -1.1784
 1124SOL     OW 3412   4.344   2.690   0.165 -0.1988 -0.2713 -0.3462
 1124SOL    HW1 3413   4.433   2.720   0.146  0.0164  0.2789  1.3789
 1124SOL    HW2 3414   4.353   2.596   0.180 -0.0027 -0.3057 -0.6631
 1125SOL     OW 3415   2.502   4.622   2.562 -0.2711 -0.5015  0.3468
 1125SOL    HW1 3416   2.417   4.642   2.601  0.3259  1.6498  0.6514
 1125SOL    HW2 3417   2.480   4.568   2.486 -1.8592 -0.4848  0.7443
 1126SOL     OW 3418   2.736   3.707   2.231  0.4409  0.2979 -0.3760
 1126SOL    HW1 3419   2.694   3.655   2.300  0.6061  1.1832  0.4149
 1126SOL    HW2 3420   2.766   3.786   2.276  0.9807  0.6772 -1.3779
 1127SOL     OW 3421   2.997   5.571   2.705  0.5172  0.4362 -0.2395
 1127SOL    HW1 3422   3.036   5.490   2.669  0.0931 -0.2843  0.8844
 1127SOL    HW2 3423   2.983   5.552   2.797 -0.3591  1.5209 -0.1307
 1128SOL     OW 3424   3.871   5.106   2.201  0.3716  0.2958  0.9913
 1128SOL    HW1 3425   3.933   5.084   2.270 -1.0067  0.4935  2.3587
 1128SOL    HW2 3426   3.829   5.187   2.231  0.1299  0.7132 -0.3674
 1129SOL     OW 3427   2.241   5.820   2.324 -0.4452 -0.1605 -0.3288
 1129SOL    HW1 3428   2.327   5.787   2.349 -0.2506  0.7431  0.2657
 1129SOL    HW2 3429   2.224   5.781   2.238  0.5091 -0.4255 -0.4128
 1130SOL     OW 3430   3.741   5.470   2.504 -0.3638  0.2420 -0.0598
 1130SOL    HW1 3431   3.777   5.491   2.590 -0.7036 -2.3207  0.7959
 1130SOL    HW2 3432   3.818   5.459   2.448 -0.0491  0.1159  0.3907
 1131SOL     OW 3433   2.912   4.854   2.127  0.2639 -0.2147  0.1045
 1131SOL    HW1 3434   2.972   4.794   2.083  0.3076 -0.6711  0.7617
 1131SOL    HW2 3435   2.966   4.928   2.153  0.6418 -0.8033  1.0428
 1132SOL     OW 3436   2.531   4.558   1.863 -0.7836 -0.0157  0.1418
 1132SOL    HW1 3437   2.444   4.522   1.850 -0.0563 -1.5433 -0.8465
 1132SOL    HW2 3438   2.590   4.485   1.842  0.7439  1.3694 -0.5920
 1133SOL     OW 3439   3.298   5.729   3.025  0.5424 -0.2247  0.4130
 1133SOL    HW1 3440   3.335   5.642   3.039  1.2368 -0.1671 -0.8693
 1133SOL    HW2 3441   3.262   5.725   2.936  0.4791  0.7508  0.3855
 1134SOL     OW 3442   2.566   5.356   2.337 -0.0283 -0.5352 -0.2926
 1134SOL    HW1 3443   2.495   5.301   2.371  0.9338 -1.6676 -0.0803
 1134SOL    HW2 3444   2.625   5.295   2.294  1.0788  0.3333 -0.0388
 1135SOL     OW 3445   0.281   2.649   0.111 -0.0144 -0.5083  0.8887
 1135SOL    HW1 3446   0.325   2.627   0.029  1.3062  0.5422  1.2806
 1135SOL    HW2 3447   0.351   2.683   0.167 -0.7758 -1.6537  2.6399
 1136SOL     OW 3448   3.996   3.283   0.400  0.0035 -0.4114 -0.7521
 1136SOL    HW1 3449   4.036   3.358   0.355  1.7155 -0.7711  0.0880
 1136SOL    HW2 3450   4.016   3.208   0.343 -0.9505 -0.3705 -1.1567
 1137SOL     OW 3451   1.941   5.538   2.594  0.0321 -0.6616 -0.4884
 1137SOL    HW1 3452   2.004   5.584   2.650  1.0780 -0.2273 -1.9606
 1137SOL    HW2 3453   1.995   5.489   2.533 -1.0791 -2.2657 -0.2505
 1138SOL     OW 3454   2.531   4.281   2.609 -0.0985  0.3087  0.5914
 1138SOL    HW1 3455   2.562   4.328   2.686 -0.7888  1.9622 -0.1087
 1138SOL    HW2 3456   2.490   4.201   2.645 -1.8531  1.7889  2.1033
 1139SOL     OW 3457   2.959   5.883   2.426  0.3914  0.1002  0.1267
 1139SOL    HW1 3458   2.907   5.882   2.505  0.1860  0.1421 -0.0073
 1139SOL    HW2 3459   2.947   5.971   2.391 -0.7143 -0.3729 -0.7424
 1140SOL     OW 3460   1.383   3.657   0.047  0.4513  0.0771 -0.5245
 1140SOL    HW1 3461   1.371   3.608   0.128 -0.1410  1.5628  0.3201
 1140SOL    HW2 3462   1.302   3.643  -0.003 -0.0845  0.8866  0.1030
 1141SOL     OW 3463   3.138   5.341   2.664 -0.8679  0.4456 -0.0933
 1141SOL    HW1 3464   3.213   5.352   2.605 -0.9628 -0.4060 -0.3859
 1141SOL    HW2 3465   3.065   5.316   2.607 -1.1217  0.2613  0.3057
 1142SOL     OW 3466   4.219   3.468   0.288 -0.3949  0.1617 -0.4781
 1142SOL    HW1 3467   4.286   3.531   0.262  0.3113 -0.6877 -0.7958
 1142SOL    HW2 3468   4.252   3.430   0.370  0.6812 -1.8372 -1.7351
 1143SOL     OW 3469   2.550   4.794   2.931  0.0063  0.0377  0.2616
 1143SOL    HW1 3470   2.482   4.826   2.872 -1.1149 -1.5205  0.6511
 1143SOL    HW2 3471   2.614   4.753   2.873 -0.1964  0.0734  0.0132
 1144SOL     OW 3472   1.294   2.939   0.166  0.2365  0.4866 -0.3686
 1144SOL    HW1 3473   1.281   2.957   0.072 -0.0885  0.5845 -0.3063
 1144SOL    HW2 3474   1.385   2.963   0.182 -0.1013  1.8192 -0.3499
 1145SOL     OW 3475   3.237   5.115   2.828  0.0195  0.5742 -0.2250
 1145SOL    HW1 3476   3.194   5.048   2.775 -0.6095  1.9956 -1.5847
 1145SOL    HW2 3477   3.177   5.189   2.827 -0.0249  0.6803  2.5585
 1146SOL     OW 3478   6.024   5.474   3.005  0.1709  0.2226  0.1248
 1146SOL    HW1 3479   6.047   5.528   2.930  1.4079  2.7225  2.1350
 1146SOL    HW2 3480   6.099   5.481   3.064 -1.4224 -0.1568  2.3552
 1147SOL     OW 3481   2.814   4.645   2.882  0.2989  0.4093  0.0090
 1147SOL    HW1 3482   2.777   4.612   2.964 -0.5951  1.0166 -0.1254
 1147SOL    HW2 3483   2.901   4.676   2.905 -0.1272  1.0216  0.8356
 1148SOL     OW 3484   1.997   4.164   2.394  0.8011  0.1519 -0.3630
 1148SOL    HW1 3485   2.014   4.105   2.468 -0.1484  0.7709  0.3776
 1148SOL    HW2 3486   2.075   4.220   2.389  0.6132  0.5228  0.5971
 1149SOL     OW 3487   3.752   4.615   2.262  0.0838  0.2484 -0.2127
 1149SOL    HW1 3488   3.772   4.591   2.171 -2.6293 -0.1615 -0.7898
 1149SOL    HW2 3489   3.799   4.697   2.276 -0.5553  1.0992 -2.4993
 1150SOL     OW 3490   2.841   5.088   2.723  0.0587  0.2983  0.2207
 1150SOL    HW1 3491   2.841   5.125   2.812 -3.4986 -1.4022  1.0901
 1150SOL    HW2 3492   2.892   5.008   2.731  0.5682  0.6395  0.4618
 1151SOL     OW 3493   3.275   4.741   2.211  0.1565  0.1479 -0.1536
 1151SOL    HW1 3494   3.237   4.816   2.165 -1.6599  1.7556  3.6088
 1151SOL    HW2 3495   3.200   4.683   2.228  0.5710  0.0727  1.5560
 1152SOL     OW 3496   2.858   5.073   2.365 -0.3520  0.5820  0.3216
 1152SOL    HW1 3497   2.855   4.978   2.381 -2.2815  0.7462  1.2437
 1152SOL    HW2 3498   2.802   5.085   2.288 -1.0451  1.0730  0.8911
 1153SOL     OW 3499   2.670   5.463   2.553 -0.6560 -0.1662 -0.2584
 1153SOL    HW1 3500   2.615   5.426   2.484 -0.1020  1.4719 -1.6431
 1153SOL    HW2 3501   2.755   5.419   2.542 -0.6285 -0.0540 -0.5039
 1154SOL     OW 3502   6.275   4.754   2.769  0.0460 -0.0415  0.0477
 1154SOL    HW1 3503   6.307   4.664   2.759  0.4002  0.1337 -0.4080
 1154SOL    HW2 3504   6.323   4.804   2.703 -0.3834  0.4233  0.0842
 1155SOL     OW 3505   2.232   4.369   2.758  0.2282  0.0858  0.2721
 1155SOL    HW1 3506   2.199   4.282   2.735  0.6014  0.0227 -0.0386
 1155SOL    HW2 3507   2.306   4.351   2.817  0.0047  0.2083  0.5890
 1156SOL     OW 3508   1.898   5.351   2.010  0.5300 -0.3824 -0.3414
 1156SOL    HW1 3509   1.877   5.416   2.076  1.0862  0.8385 -1.3378
 1156SOL    HW2 3510   1.856   5.383   1.930  1.4484 -0.8367 -1.0225
 1157SOL     OW 3511   6.165   5.843   2.793 -0.1468  0.3079  0.2435
 1157SOL    HW1 3512   6.124   5.920   2.753  0.7844  0.9606  0.5282
 1157SOL    HW2 3513   6.258   5.864   2.796 -0.0351 -0.2779  1.5500
 1158SOL     OW 3514   2.457   5.680   2.995 -0.5251 -0.2200  0.2389
 1158SOL    HW1 3515   2.424   5.756   2.947 -0.0050  0.6487  1.1979
 1158SOL    HW2 3516   2.509   5.718   3.067 -1.4579 -1.4452  1.6282
 1159SOL     OW 3517   6.172   4.818   3.000 -0.5145 -0.2096 -0.4102
 1159SOL    HW1 3518   6.220   4.785   2.924 -0.2705 -0.5910 -0.0907
 1159SOL    HW2 3519   6.201   4.763   3.073 -0.6264  0.2611 -0.0087
 1160SOL     OW 3520   2.889   4.805   2.445  0.9180 -0.4422 -0.1664
 1160SOL    HW1 3521   2.942   4.750   2.388  1.1252 -1.1005  0.6567
 1160SOL    HW2 3522   2.843   4.744   2.502  0.8289  0.2183  0.4764
 1161SOL     OW 3523   2.691   5.184   2.157  0.3095  0.1928 -0.8242
 1161SOL    HW1 3524   2.634   5.125   2.109  2.2201 -2.9637  0.4320
 1161SOL    HW2 3525   2.774   5.183   2.109  1.4295 -0.9458  0.9865
 1162SOL     OW 3526   2.896   5.288   2.541  0.4961  0.0886  0.6238
 1162SOL    HW1 3527   2.903   5.225   2.469 -0.7958 -0.2792  0.8068
 1162SOL    HW2 3528   2.846   5.243   2.608  0.3606  0.9859  1.1419
 1163SOL     OW 3529   3.467   5.825   2.538 -0.6068 -0.2255 -0.4962
 1163SOL    HW1 3530   3.474   5.780   2.454  0.7174  0.1709 -0.6200
 1163SOL    HW2 3531   3.387   5.877   2.531  0.5864  1.5043 -2.3828
 1164SOL     OW 3532   6.254   5.280   2.873 -0.0020 -0.3075  0.2703
 1164SOL    HW1 3533   6.262   5.331   2.953  0.7725  0.8335 -0.5113
 1164SOL    HW2 3534   6.320   5.316   2.814 -1.2847 -0.3777 -1.2890
 1165SOL     OW 3535   3.582   4.352   2.456 -0.5602 -0.1814 -0.2885
 1165SOL    HW1 3536   3.511   4.384   2.510 -1.0246  0.8762 -1.4792
 1165SOL    HW2 3537   3.540   4.294   2.392 -0.0275 -1.3951  0.4339
 1166SOL     OW 3538   3.272   5.778   2.236  0.2141 -0.2457  0.2639
 1166SOL    HW1 3539   3.284   5.871   2.258  1.3283 -0.2486 -0.2676
 1166SOL    HW2 3540   3.180   5.772   2.208 -0.4291  0.3124  2.0830
 1167SOL     OW 3541   3.453   5.229   2.980 -0.0360  0.0498 -0.2053
 1167SOL    HW1 3542   3.516   5.294   2.948  0.8736 -0.7742 -0.1673
 1167SOL    HW2 3543   3.414   5.192   2.900 -0.5164  0.6063 -0.2281
 1168SOL     OW 3544   2.546   1.794   1.966 -0.0304  0.2546  0.5502
 1168SOL    HW1 3545   2.592   1.720   2.006  0.6454  0.6132  0.4540
 1168SOL    HW2 3546   2.461   1.758   1.941 -0.1310 -0.2047  1.5047
 1169SOL     OW 3547   3.817   4.458   2.760 -0.4208  0.0906  0.1087
 1169SOL    HW1 3548   3.783   4.496   2.679  0.9087  2.1545  0.4446
 1169SOL    HW2 3549   3.912   4.458   2.749 -0.1043  1.7869  2.1733
 1170SOL     OW 3550   2.688   4.132   2.312  0.1826 -0.0392  0.2056
 1170SOL    HW1 3551   2.597   4.105   2.302  0.0877  0.5765 -0.6258
 1170SOL    HW2 3552   2.683   4.221   2.348  0.3814  0.9767 -2.1129
 1171SOL     OW 3553   2.896   1.745   2.167  0.2264  0.2072  0.2336
 1171SOL    HW1 3554   2.807   1.712   2.177  1.3275 -2.3487  2.9204
 1171SOL    HW2 3555   2.895   1.831   2.209 -0.2444 -1.3540  3.6995
 1172SOL     OW 3556   3.081   5.327   2.242 -0.0940  0.0122 -0.4707
 1172SOL    HW1 3557   3.010   5.380   2.279  0.2156  0.1599 -0.0826
 1172SOL    HW2 3558   3.150   5.390   2.223  1.2232 -0.4955  2.2188
 1173SOL     OW 3559   3.167   1.913   2.059  0.6639 -0.3519  0.6013
 1173SOL    HW1 3560   3.198   1.894   2.147  0.3512 -0.7237  0.6331
 1173SOL    HW2 3561   3.183   1.833   2.009 -0.9593 -0.8535  0.8214
 1174SOL     OW 3562   3.033   5.410   3.034  0.0621  0.2532  0.6260
 1174SOL    HW1 3563   3.124   5.413   3.006  0.3764  0.7173  1.6337
 1174SOL    HW2 3564   3.029   5.470   3.109 -1.1116  0.3868  0.4757
 1175SOL     OW 3565   2.707   4.384   2.437 -0.2915  0.1236  0.1730
 1175SOL    HW1 3566   2.688   4.460   2.383  1.2712  2.9039  3.1927
 1175SOL    HW2 3567   2.636   4.381   2.501 -0.4309 -1.1216 -0.0029
 1176SOL     OW 3568   2.555   5.776   2.628 -0.1827  0.6567 -0.3749
 1176SOL    HW1 3569   2.523   5.687   2.642  0.7693  0.4850  0.9097
 1176SOL    HW2 3570   2.558   5.786   2.533  1.8508 -1.5292 -0.6349
 1177SOL     OW 3571   2.028   1.656   2.324 -0.1690  0.3209  0.1092
 1177SOL    HW1 3572   1.990   1.596   2.259 -0.8991  1.0725 -0.1840
 1177SOL    HW2 3573   2.115   1.621   2.340 -0.4802 -0.6734 -0.2410
 1178SOL     OW 3574   1.573   4.522   1.786 -0.1855  0.4638  0.0424
 1178SOL    HW1 3575   1.636   4.451   1.781 -1.4760 -0.6623 -3.1214
 1178SOL    HW2 3576   1.544   4.523   1.877  2.7007 -0.4180  1.0697
 1179SOL     OW 3577   1.775   4.031   1.930 -0.3441 -0.0148 -0.3793
 1179SOL    HW1 3578   1.821   3.968   1.874  0.3096  1.4370 -1.5392
 1179SOL    HW2 3579   1.689   3.992   1.943  1.0743 -2.7671  1.7627
 1180SOL     OW 3580   2.679   1.549   2.051  0.3104  0.3862  0.9558
 1180SOL    HW1 3581   2.681   1.468   2.102  1.5917 -0.2749 -0.1108
 1180SOL    HW2 3582   2.742   1.536   1.980 -2.0118  0.9066 -1.3870
 1181SOL     OW 3583   3.316   6.032   3.086 -0.2593  0.4757  0.2583
 1181SOL    HW1 3584   3.245   5.993   3.036 -0.1965 -0.5170  0.9159
 1181SOL    HW2 3585   3.376   5.960   3.104 -0.0854  0.8865  1.4156
 1182SOL     OW 3586   2.708   4.567   2.221 -0.2402  0.9206 -0.4441
 1182SOL    HW1 3587   2.627   4.604   2.187  0.4560  1.3917 -1.6617
 1182SOL    HW2 3588   2.777   4.623   2.186  0.7800 -0.8097 -1.3588
 1183SOL     OW 3589   2.558   4.902   2.414 -0.3754 -0.3027 -0.5275
 1183SOL    HW1 3590   2.582   4.956   2.488 -1.7903  0.5186 -0.6387
 1183SOL    HW2 3591   2.589   4.814   2.437  0.7999  0.2848  0.2125
 1184SOL     OW 3592   1.534   2.946   0.437 -0.0735  0.4029  0.0335
 1184SOL    HW1 3593   1.610   2.888   0.439 -0.1218  0.3223 -0.5117
 1184SOL    HW2 3594   1.533   2.983   0.349 -1.5724 -0.8135 -0.5058
 1185SOL     OW 3595   2.524   5.791   2.329 -0.2172  0.0150  0.1592
 1185SOL    HW1 3596   2.599   5.751   2.284  0.0143 -0.3848  0.8805
 1185SOL    HW2 3597   2.539   5.885   2.322 -0.5472 -0.0092 -1.2010
 1186SOL     OW 3598   2.745   5.943   2.924 -0.2005  0.3699  0.0145
 1186SOL    HW1 3599   2.711   6.022   2.882 -0.3205 -0.5319 -1.7197
 1186SOL    HW2 3600   2.714   5.947   3.014 -0.9523  1.8501 -0.2852
 1187SOL     OW 3601   2.920   5.161   3.014  0.2139  0.1204  0.2638
 1187SOL    HW1 3602   2.845   5.167   3.073  0.9717  0.1697  1.2491
 1187SOL    HW2 3603   2.961   5.247   3.019  1.1407 -0.3329  0.8536
 1188SOL     OW 3604   2.717   1.514   1.633  0.4181  0.2869 -0.0258
 1188SOL    HW1 3605   2.658   1.473   1.696 -0.4496  0.9807 -0.3713
 1188SOL    HW2 3606   2.765   1.579   1.684 -1.1920  1.7600 -0.2730
 1189SOL     OW 3607   3.937   5.780   2.600  0.0467  0.1007 -0.3402
 1189SOL    HW1 3608   3.980   5.718   2.541  0.3358  0.4785 -0.5403
 1189SOL    HW2 3609   3.883   5.726   2.657  1.8539 -0.5584  0.8424
 1190SOL     OW 3610   6.095   5.324   2.540  0.2389 -0.1351 -0.6432
 1190SOL    HW1 3611   6.153   5.381   2.590  1.6942 -0.7936 -1.5258
 1190SOL    HW2 3612   6.045   5.276   2.607 -1.2518  2.3225  0.1188
 1191SOL     OW 3613   2.230   4.583   2.064  0.1052 -0.3799  0.1661
 1191SOL    HW1 3614   2.200   4.492   2.065  0.7914 -0.6501 -1.4766
 1191SOL    HW2 3615   2.214   4.613   1.975  1.2615  0.6372  0.2758
 1192SOL     OW 3616   0.156   2.970   0.027  0.1690  0.2579  0.2388
 1192SOL    HW1 3617   0.238   2.928   0.052  0.4513  0.3618 -0.4927
 1192SOL    HW2 3618   0.116   2.996   0.110  0.2142 -1.0298  0.6935
 1193SOL     OW 3619   2.811   5.873   2.641  0.3049 -0.5614  0.0104
 1193SOL    HW1 3620   2.810   5.912   2.729 -0.5128 -1.0128  0.2032
 1193SOL    HW2 3621   2.730   5.823   2.636  0.5283 -0.8405 -0.8728
 1194SOL     OW 3622   3.233   4.140   2.880  0.1555  0.0307  0.0338
 1194SOL    HW1 3623   3.263   4.050   2.890 -1.1197 -0.6493 -1.7347
 1194SOL    HW2 3624   3.171   4.153   2.952 -1.5025 -1.3924 -1.0473
 1195SOL     OW 3625   2.750   5.673   2.205  0.0027 -0.0976 -0.3049
 1195SOL    HW1 3626   2.714   5.587   2.186 -0.2203 -0.6882  2.3547
 1195SOL    HW2 3627   2.825   5.656   2.263  0.9416  1.4371 -0.9917
 1196SOL     OW 3628   2.615   4.743   1.665  0.0671 -0.0762 -0.1653
 1196SOL    HW1 3629   2.600   4.697   1.748  0.1828  0.2580  0.0423
 1196SOL    HW2 3630   2.529   4.777   1.640 -0.1215 -0.8489 -0.5874
 1197SOL     OW 3631   3.070   4.903   2.643  0.4592 -0.3870 -0.1235
 1197SOL    HW1 3632   3.078   4.810   2.659 -0.9855 -0.2835  1.4970
 1197SOL    HW2 3633   3.032   4.909   2.555 -1.7822 -1.4629  0.6979
 1198SOL     OW 3634   3.450   4.621   2.405 -0.0041 -0.0458  0.6573
 1198SOL    HW1 3635   3.387   4.659   2.344 -0.4556 -1.2137  0.3662
 1198SOL    HW2 3636   3.535   4.636   2.363 -0.2449 -0.0893  0.1394
 1199SOL     OW 3637   2.179   5.425   2.051 -0.2746 -0.1118  0.1880
 1199SOL    HW1 3638   2.238   5.349   2.049 -0.5357 -0.3602  1.3008
 1199SOL    HW2 3639   2.096   5.392   2.018  0.8091  0.8834 -4.1455
 1200SOL     OW 3640   2.589   1.709   2.381  0.3245  0.1968 -0.2643
 1200SOL    HW1 3641   2.665   1.766   2.375  1.6479 -1.4067  0.5226
 1200SOL    HW2 3642   2.522   1.762   2.424  1.3935  1.2425  0.1418
 1201SOL     OW 3643   1.948   2.298   0.035  0.4417  0.4398 -0.6711
 1201SOL    HW1 3644   1.989   2.221   0.075  0.7062  2.0966  2.6365
 1201SOL    HW2 3645   2.021   2.354   0.012  0.2738  1.6594  1.4606
 1202SOL     OW 3646   2.156   2.335   0.634 -0.1248 -0.0807 -0.5650
 1202SOL    HW1 3647   2.235   2.384   0.656 -0.0859 -0.3223 -0.1582
 1202SOL    HW2 3648   2.169   2.249   0.673 -0.2900 -0.3453 -1.0907
 1203SOL     OW 3649   1.834   1.927   0.635  0.3737 -0.4750  0.0298
 1203SOL    HW1 3650   1.778   1.999   0.667  0.6305 -0.2485 -0.0224
 1203SOL    HW2 3651   1.775   1.852   0.629 -0.1833  0.0372 -1.1231
 1204SOL     OW 3652   2.245   3.276   1.166  0.1226 -0.6034 -0.4098
 1204SOL    HW1 3653   2.294   3.220   1.226  0.2276  0.2273  0.2818
 1204SOL    HW2 3654   2.300   3.353   1.154  0.0187 -0.6676 -1.4406
 1205SOL     OW 3655   3.386   3.523   1.226 -0.0839  0.1339  0.2474
 1205SOL    HW1 3656   3.312   3.487   1.176  0.4421 -0.9756  0.2318
 1205SOL    HW2 3657   3.372   3.618   1.225 -0.5139  0.0807 -1.3295
 1206SOL     OW 3658   2.806   2.642   0.575  0.3133 -0.2344 -0.2577
 1206SOL    HW1 3659   2.818   2.637   0.670  1.0570 -2.3823 -0.4117
 1206SOL    HW2 3660   2.880   2.693   0.543  0.8386 -0.7235  0.1814
 1207SOL     OW 3661   3.691   2.314   0.392 -0.5263  0.1593  0.0720
 1207SOL    HW1 3662   3.747   2.391   0.392  1.5781 -1.2649  0.9774
 1207SOL    HW2 3663   3.632   2.328   0.466  0.7305  0.3466  1.0820
 1208SOL     OW 3664   2.626   3.236   0.792  0.2205  0.1992  0.0306
 1208SOL    HW1 3665   2.696   3.284   0.835  0.2257 -0.1160  0.3835
 1208SOL    HW2 3666   2.628   3.149   0.832  0.5332 -0.2583 -0.9451
 1209SOL     OW 3667   2.498   3.078   2.194  0.1761 -0.3170  0.0746
 1209SOL    HW1 3668   2.441   3.011   2.232 -0.7886 -1.1767 -2.5998
 1209SOL    HW2 3669   2.584   3.036   2.187  0.1370 -0.4650  0.4756
 1210SOL     OW 3670   2.337   2.860   0.772 -0.3770 -0.2199  0.3191
 1210SOL    HW1 3671   2.353   2.766   0.767 -1.4755 -0.4196  0.2766
 1210SOL    HW2 3672   2.417   2.896   0.810  1.0140 -0.8746 -1.7909
 1211SOL     OW 3673   2.396   3.039   1.373 -0.1392  0.7324  0.2420
 1211SOL    HW1 3674   2.435   2.974   1.431  0.5639  0.4807 -0.4875
 1211SOL    HW2 3675   2.335   3.088   1.428 -1.3396 -1.0842  0.6102
 1212SOL     OW 3676   2.063   3.329   0.950 -0.6691  0.3042 -0.2405
 1212SOL    HW1 3677   2.135   3.328   0.888  0.7088  3.6033  1.1079
 1212SOL    HW2 3678   2.094   3.277   1.024  0.3590  1.7040  0.3305
 1213SOL     OW 3679   2.737   2.286   1.602 -0.0968 -0.0815  0.0583
 1213SOL    HW1 3680   2.797   2.281   1.528 -0.7207 -1.7626 -0.3954
 1213SOL    HW2 3681   2.669   2.348   1.574  0.6783  0.7573  0.0130
 1214SOL     OW 3682   3.819   2.546   0.726 -0.8352 -0.2654  0.4563
 1214SOL    HW1 3683   3.738   2.583   0.760  0.0618  0.5703  1.8040
 1214SOL    HW2 3684   3.819   2.455   0.756 -0.8933 -0.0285  1.2042
 1215SOL     OW 3685   2.044   4.033   0.824 -0.4638  0.1195  0.8340
 1215SOL    HW1 3686   1.949   4.027   0.810 -0.2418 -1.0904 -0.3495
 1215SOL    HW2 3687   2.065   3.955   0.875 -0.1744  0.7551  1.7264
 1216SOL     OW 3688   2.352   3.535   0.468 -0.1002  0.3916 -0.2820
 1216SOL    HW1 3689   2.409   3.493   0.532 -0.6408  1.2123  0.7575
 1216SOL    HW2 3690   2.394   3.619   0.449  0.2369  0.0168 -1.2937
 1217SOL     OW 3691   1.796   3.042   0.821 -0.3015  0.3996 -0.0447
 1217SOL    HW1 3692   1.742   3.004   0.890 -2.0642  1.7499 -0.6188
 1217SOL    HW2 3693   1.872   3.077   0.867 -1.1984  0.8199  1.1601
 1218SOL     OW 3694   2.645   3.669   1.301 -0.0810  0.1134  0.0942
 1218SOL    HW1 3695   2.689   3.751   1.279  0.7519 -0.3977 -0.1849
 1218SOL    HW2 3696   2.618   3.680   1.392 -1.2587  1.2479 -0.3715
 1219SOL     OW 3697   3.001   1.990   1.250  0.1080  0.1182  0.2465
 1219SOL    HW1 3698   3.075   1.943   1.211 -0.5795  0.3892 -1.4998
 1219SOL    HW2 3699   2.958   2.032   1.175 -0.9823  1.1349  1.4032
 1220SOL     OW 3700   1.953   2.520   0.603  0.2744  0.3253  0.3457
 1220SOL    HW1 3701   2.022   2.455   0.591 -0.7390 -1.1795  2.1574
 1220SOL    HW2 3702   1.977   2.567   0.683  0.8624  2.0971 -0.8044
 1221SOL     OW 3703   5.805   5.667   2.911  0.1003  0.1287 -0.5491
 1221SOL    HW1 3704   5.806   5.579   2.949 -1.1362  0.3074 -0.0493
 1221SOL    HW2 3705   5.862   5.660   2.834  0.7137 -0.8746 -0.0383
 1222SOL     OW 3706   2.041   3.545   0.139  0.2255  0.4695  0.1462
 1222SOL    HW1 3707   1.998   3.619   0.182  0.7903  1.3800 -0.8018
 1222SOL    HW2 3708   2.068   3.488   0.211 -0.1835  1.2096  0.9051
 1223SOL     OW 3709   3.717   2.881   0.608 -0.2894  0.1661 -0.0785
 1223SOL    HW1 3710   3.630   2.876   0.569 -1.2137  1.1220  1.7420
 1223SOL    HW2 3711   3.738   2.790   0.630 -2.1704  0.1929  2.1614
 1224SOL     OW 3712   3.521   3.298   0.546 -0.4247 -0.0425  0.1935
 1224SOL    HW1 3713   3.436   3.319   0.509 -0.1222 -0.2149 -0.6115
 1224SOL    HW2 3714   3.581   3.297   0.471 -0.0681 -1.8279  0.4506
 1225SOL     OW 3715   1.980   2.740   1.498  0.3493  0.1698  0.0948
 1225SOL    HW1 3716   1.920   2.745   1.572  0.1137  0.8779 -0.1445
 1225SOL    HW2 3717   1.924   2.748   1.421  0.5644 -0.7883 -0.1846
 1226SOL     OW 3718   2.959   3.651   0.685  0.3350 -0.1632  0.1812
 1226SOL    HW1 3719   2.886   3.591   0.671  2.1474 -2.9531  1.6967
 1226SOL    HW2 3720   3.001   3.659   0.600  0.8667 -2.3098  0.1817
 1227SOL     OW 3721   2.572   1.626   0.605  0.3028 -0.4632  0.1543
 1227SOL    HW1 3722   2.476   1.626   0.601  0.2885 -0.8688  0.4135
 1227SOL    HW2 3723   2.597   1.715   0.581 -0.0025 -1.1078 -2.9785
 1228SOL     OW 3724   1.822   2.642   1.276  0.1805  0.0954  0.1141
 1228SOL    HW1 3725   1.844   2.718   1.221  1.7951 -1.1018 -0.9902
 1228SOL    HW2 3726   1.763   2.590   1.221  1.1608 -0.7111 -0.1932
 1229SOL     OW 3727   2.496   2.105   1.605 -0.0682 -0.1663 -0.8471
 1229SOL    HW1 3728   2.499   2.069   1.694 -0.2523 -1.4427 -1.3427
 1229SOL    HW2 3729   2.566   2.171   1.604 -0.0705 -0.1239  0.2385
 1230SOL     OW 3730   3.173   3.381   1.103 -0.1408 -0.2793  0.0168
 1230SOL    HW1 3731   3.208   3.293   1.090  1.4243  0.2947  0.1883
 1230SOL    HW2 3732   3.134   3.404   1.019  2.5565  0.1906 -1.1945
 1231SOL     OW 3733   3.493   3.643   0.826  0.7190 -0.1744  0.7987
 1231SOL    HW1 3734   3.544   3.632   0.746  0.0899 -1.2878  0.5325
 1231SOL    HW2 3735   3.418   3.696   0.800  0.2592 -0.9464  0.5254
 1232SOL     OW 3736   3.217   2.019   0.693  0.2518  0.3453  0.3801
 1232SOL    HW1 3737   3.229   2.014   0.598 -0.1978 -1.0350  0.3821
 1232SOL    HW2 3738   3.151   1.953   0.713  0.3998  0.5622  1.6710
 1233SOL     OW 3739   2.605   2.611   1.271  0.3215  0.0277 -0.4429
 1233SOL    HW1 3740   2.530   2.638   1.218 -0.2964  0.7471  0.7681
 1233SOL    HW2 3741   2.568   2.557   1.340  0.8339  0.8330  0.4874
 1234SOL     OW 3742   2.929   2.142   1.041  0.1318 -0.4172  0.5025
 1234SOL    HW1 3743   2.911   2.230   1.077 -0.2480 -0.6795  0.9711
 1234SOL    HW2 3744   3.003   2.155   0.982 -0.1443  0.2855  0.2976
 1235SOL     OW 3745   2.702   2.709   1.769 -0.4705 -0.4674 -0.3778
 1235SOL    HW1 3746   2.758   2.720   1.692 -1.9326 -1.3342 -1.6270
 1235SOL    HW2 3747   2.689   2.614   1.775 -1.2201 -0.3274  0.3313
 1236SOL     OW 3748   2.376   2.698   1.141  0.6912 -0.4484  0.1086
 1236SOL    HW1 3749   2.295   2.705   1.192  0.0685  0.9816 -1.0284
 1236SOL    HW2 3750   2.397   2.787   1.115  3.2535 -0.6413  1.2506
 1237SOL     OW 3751   3.125   2.377   0.639 -0.5648  0.0126 -0.6156
 1237SOL    HW1 3752   3.097   2.287   0.656  1.9686 -0.6863  0.2453
 1237SOL    HW2 3753   3.137   2.381   0.544  0.1181 -0.8479 -0.5787
 1238SOL     OW 3754   2.002   2.645   0.841  0.1282 -0.2212  0.5363
 1238SOL    HW1 3755   1.985   2.632   0.934 -0.0543 -1.7439  0.3170
 1238SOL    HW2 3756   2.035   2.735   0.835  0.4244 -0.1931  2.1022
 1239SOL     OW 3757   2.051   3.808   1.547 -0.5873  0.3684  0.2047
 1239SOL    HW1 3758   2.083   3.739   1.605  0.6730  1.9904  1.5494
 1239SOL    HW2 3759   2.097   3.794   1.464  0.2327  0.0379  0.7093
 1240SOL     OW 3760   4.804   4.787   2.692 -0.2949 -0.6516 -0.0930
 1240SOL    HW1 3761   4.712   4.773   2.713 -0.2235  0.5398  1.1909
 1240SOL    HW2 3762   4.805   4.801   2.597 -1.5115 -0.0739 -0.0411
 1241SOL     OW 3763   3.297   3.342   0.398  0.5842  0.2880 -0.0285
 1241SOL    HW1 3764   3.298   3.432   0.368  0.0833 -0.2647 -1.8162
 1241SOL    HW2 3765   3.312   3.290   0.319 -1.7204 -1.2802  0.4697
 1242SOL     OW 3766   2.284   1.635   0.601 -0.2203  0.3079  0.0692
 1242SOL    HW1 3767   2.268   1.576   0.675  2.3224  0.2126  0.6284
 1242SOL    HW2 3768   2.215   1.701   0.607 -0.9981 -0.5941  1.5638
 1243SOL     OW 3769   2.794   3.515   0.211  0.5675  0.1512 -0.1803
 1243SOL    HW1 3770   2.778   3.485   0.300 -2.5696 -2.1984 -1.3461
 1243SOL    HW2 3771   2.766   3.607   0.211  1.2037  0.3681  1.3495
 1244SOL     OW 3772   2.491   3.592   0.926 -0.0312 -0.1495 -0.1022
 1244SOL    HW1 3773   2.585   3.583   0.938 -0.0863 -1.8379 -0.6928
 1244SOL    HW2 3774   2.455   3.587   1.015  0.3788 -0.3179  0.0577
 1245SOL     OW 3775   4.053   2.828   0.639  0.7961  0.0858 -0.2079
 1245SOL    HW1 3776   4.007   2.834   0.555  1.1928  0.9249 -0.3665
 1245SOL    HW2 3777   4.022   2.904   0.689  0.2122 -0.6510  0.5920
 1246SOL     OW 3778   2.983   2.831   0.511  0.8467  0.0640 -0.0713
 1246SOL    HW1 3779   2.943   2.838   0.424  2.0214  0.1708 -0.6122
 1246SOL    HW2 3780   2.979   2.920   0.546 -0.6750 -0.1811  0.4940
 1247SOL     OW 3781   2.256   3.259   1.523 -0.4797 -0.4862 -0.2456
 1247SOL    HW1 3782   2.238   3.347   1.490 -1.9691  0.0220  1.7696
 1247SOL    HW2 3783   2.333   3.269   1.579  0.0693 -0.7160 -0.9475
 1248SOL     OW 3784   1.981   2.182   1.212 -0.5371  0.0133 -0.3334
 1248SOL    HW1 3785   2.074   2.205   1.207 -0.2683 -0.8709  0.3163
 1248SOL    HW2 3786   1.977   2.113   1.278 -1.7306  0.4042  0.0354
 1249SOL     OW 3787   1.787   3.860   1.199  0.2386 -0.4487 -0.2041
 1249SOL    HW1 3788   1.759   3.834   1.286 -4.5325  0.6117 -1.1281
 1249SOL    HW2 3789   1.749   3.794   1.141  2.1622 -0.3939 -1.6410
 1250SOL     OW 3790   2.877   3.640   1.013 -0.5190  0.1040 -0.2125
 1250SOL    HW1 3791   2.836   3.556   1.035 -1.2766  0.2825 -0.9031
 1250SOL    HW2 3792   2.965   3.616   0.984 -0.3005 -0.3307  0.7892
 1251SOL     OW 3793   2.062   2.509   0.278  0.0199  0.3751  0.2925
 1251SOL    HW1 3794   2.130   2.539   0.338 -0.7219 -0.3904  1.5545
 1251SOL    HW2 3795   2.011   2.587   0.257 -1.2261  0.2874  2.6597
 1252SOL     OW 3796   2.886   2.406   1.965  0.1907 -0.2834  0.2999
 1252SOL    HW1 3797   2.963   2.462   1.973  0.4517 -0.4554 -0.7701
 1252SOL    HW2 3798   2.920   2.323   1.931 -0.4440 -0.3906 -0.1091
 1253SOL     OW 3799   2.682   1.918   1.768 -0.2445 -0.6564  0.1992
 1253SOL    HW1 3800   2.634   1.890   1.846 -2.3457 -0.4504 -0.9395
 1253SOL    HW2 3801   2.646   1.865   1.697 -0.7044  1.3446 -1.1531
 1254SOL     OW 3802   2.956   3.116   1.132 -0.0171 -0.3796  0.5911
 1254SOL    HW1 3803   3.032   3.066   1.100  0.7749  0.6604  0.8011
 1254SOL    HW2 3804   2.953   3.096   1.226 -1.2677 -2.0272  0.2478
 1255SOL     OW 3805   3.081   2.451   1.455  0.6886 -0.5922 -0.1416
 1255SOL    HW1 3806   3.045   2.365   1.431 -0.0556 -0.4556  0.4466
 1255SOL    HW2 3807   3.113   2.440   1.544 -0.6523  0.0880  0.4477
 1256SOL     OW 3808   2.839   3.282   0.940 -0.0264  0.0448 -0.9003
 1256SOL    HW1 3809   2.801   3.352   0.994  1.6028  0.5771 -0.3718
 1256SOL    HW2 3810   2.878   3.222   1.003 -0.0182 -0.4873 -1.4074
 1257SOL     OW 3811   2.716   2.504   0.378  0.3453 -0.0260 -0.0235
 1257SOL    HW1 3812   2.748   2.555   0.453  1.2781 -0.3148 -0.2044
 1257SOL    HW2 3813   2.705   2.415   0.413 -0.6555  0.1544  0.1335
 1258SOL     OW 3814   2.563   1.886   0.460  0.8562 -0.1841 -0.3155
 1258SOL    HW1 3815   2.606   1.937   0.391  0.7548 -0.2139 -0.3991
 1258SOL    HW2 3816   2.470   1.891   0.440  0.9384 -1.6830 -1.2011
 1259SOL     OW 3817   2.680   2.244   0.390  0.2864 -0.2027 -0.2988
 1259SOL    HW1 3818   2.658   2.175   0.327 -0.7843 -2.3940  2.2980
 1259SOL    HW2 3819   2.770   2.226   0.415 -0.3789 -1.5416  1.3062
 1260SOL     OW 3820   3.007   2.557   1.210 -0.1237  0.4402 -0.8515
 1260SOL    HW1 3821   3.089   2.568   1.162 -0.3972  1.2006 -1.1697
 1260SOL    HW2 3822   3.034   2.542   1.301  0.3706  2.1663 -0.6645
 1261SOL     OW 3823   3.021   3.458   1.330 -0.4103 -0.0116  0.5570
 1261SOL    HW1 3824   3.078   3.448   1.254 -1.8203  1.3533 -0.7632
 1261SOL    HW2 3825   2.994   3.369   1.351  1.2527 -0.5695  0.4934
 1262SOL     OW 3826   2.289   3.145   0.620 -0.0507  1.1123 -0.6482
 1262SOL    HW1 3827   2.323   3.082   0.683 -0.0210  0.8671 -0.9110
 1262SOL    HW2 3828   2.344   3.135   0.543  0.0414  1.5559 -0.6447
 1263SOL     OW 3829   3.266   3.583   0.293  0.2711  0.5157  0.1125
 1263SOL    HW1 3830   3.244   3.618   0.206 -1.6893 -3.2578 -1.1670
 1263SOL    HW2 3831   3.204   3.625   0.352  0.4796  1.8714 -0.5820
 1264SOL     OW 3832   1.867   2.437   1.482  0.1380  0.6699 -0.0707
 1264SOL    HW1 3833   1.956   2.452   1.514 -0.9074  1.8210  2.6100
 1264SOL    HW2 3834   1.851   2.508   1.420  1.7170 -0.7540 -2.2600
 1265SOL     OW 3835   2.525   2.071   0.819 -0.0398  0.1101  0.1392
 1265SOL    HW1 3836   2.499   1.981   0.838 -1.3170  0.5187  0.4114
 1265SOL    HW2 3837   2.453   2.107   0.769  0.8908  0.7122 -0.7975
 1266SOL     OW 3838   2.604   2.689   0.138  0.1843 -0.1653 -0.1222
 1266SOL    HW1 3839   2.541   2.672   0.208  1.3631 -2.1342  0.5503
 1266SOL    HW2 3840   2.554   2.675   0.057 -0.8935  0.9893  0.3199
 1267SOL     OW 3841   2.993   1.864   0.689  0.4259 -0.1154  0.4141
 1267SOL    HW1 3842   2.903   1.899   0.690 -0.8800 -3.0669 -1.4135
 1267SOL    HW2 3843   2.993   1.796   0.756  1.7180  0.6279  1.2042
 1268SOL     OW 3844   3.336   3.425   0.746  0.2431  0.5187 -0.5154
 1268SOL    HW1 3845   3.400   3.476   0.797 -0.2913 -0.0750  0.7939
 1268SOL    HW2 3846   3.388   3.382   0.678  1.1827  0.3863  0.2680
 1269SOL     OW 3847   3.073   2.596   0.792  0.1497  0.3210 -0.1068
 1269SOL    HW1 3848   3.092   2.519   0.738  1.3441 -0.8198  1.8192
 1269SOL    HW2 3849   2.978   2.594   0.805  0.1668 -0.8547 -0.0765
 1270SOL     OW 3850   4.044   2.515   0.160  0.0672  0.0301  0.0243
 1270SOL    HW1 3851   3.971   2.466   0.196  1.2620 -1.5721  0.4087
 1270SOL    HW2 3852   4.089   2.550   0.236  1.4274 -1.6390  0.0651
 1271SOL     OW 3853   3.935   2.784   0.356 -0.3345 -0.1076 -0.0624
 1271SOL    HW1 3854   3.856   2.838   0.359 -0.2605 -0.0078  0.0778
 1271SOL    HW2 3855   3.975   2.804   0.271  0.5995  1.3346  0.6902
 1272SOL     OW 3856   2.338   2.097   0.412 -0.2287 -0.0156 -0.0113
 1272SOL    HW1 3857   2.414   2.141   0.373 -0.1701  0.8957  1.0839
 1272SOL    HW2 3858   2.266   2.157   0.397 -0.6313 -0.6131 -0.5255
 1273SOL     OW 3859   2.867   3.247   1.441  0.0591 -0.8546  0.1322
 1273SOL    HW1 3860   2.827   3.161   1.450  0.4225 -0.9756  0.6449
 1273SOL    HW2 3861   2.807   3.306   1.487 -0.7308 -0.6575 -1.1130
 1274SOL     OW 3862   2.819   2.844   0.998 -0.2972 -0.0224  0.0674
 1274SOL    HW1 3863   2.902   2.889   0.980 -0.9818  0.7818 -1.2997
 1274SOL    HW2 3864   2.823   2.821   1.091  1.1475  0.6417  0.1925
 1275SOL     OW 3865   3.650   3.118   0.716 -0.0709  0.0452  0.0864
 1275SOL    HW1 3866   3.605   3.187   0.667  0.5097  0.8311  0.6212
 1275SOL    HW2 3867   3.659   3.046   0.654 -1.3442  0.1611 -0.2619
 1276SOL     OW 3868   2.479   2.524   0.931 -0.1852 -0.2728  0.2727
 1276SOL    HW1 3869   2.496   2.442   0.977  2.5724  0.5773  0.9782
 1276SOL    HW2 3870   2.432   2.578   0.994 -0.2380 -0.6174  0.5326
 1277SOL     OW 3871   2.782   3.023   1.706  0.3426 -0.0839 -0.3703
 1277SOL    HW1 3872   2.759   3.113   1.727 -1.7781 -0.7274  0.3791
 1277SOL    HW2 3873   2.877   3.023   1.696  0.6147  1.8320  1.5981
 1278SOL     OW 3874   2.213   2.855   0.398 -0.0029  0.3261  0.3382
 1278SOL    HW1 3875   2.189   2.897   0.480  0.5894 -0.3072  0.8533
 1278SOL    HW2 3876   2.235   2.765   0.423  2.2812  0.6843 -0.1703
 1279SOL     OW 3877   2.220   2.361   0.987  0.1574  0.1597  0.1096
 1279SOL    HW1 3878   2.200   2.435   1.044 -1.7630 -0.6943  0.6309
 1279SOL    HW2 3879   2.229   2.286   1.047  0.7221 -0.2653 -0.4997
 1280SOL     OW 3880   3.139   2.197   0.893  0.2987 -0.5941 -0.1669
 1280SOL    HW1 3881   3.188   2.171   0.815  1.9433  0.8784  0.3252
 1280SOL    HW2 3882   3.195   2.173   0.966 -1.3818 -2.2785  0.6475
 1281SOL     OW 3883   1.971   3.622   1.268 -0.2117 -0.0442 -0.5130
 1281SOL    HW1 3884   1.900   3.660   1.320 -0.9275 -0.0853 -1.4322
 1281SOL    HW2 3885   1.928   3.588   1.190  0.8582  0.1722 -1.2203
 1282SOL     OW 3886   2.277   3.014   0.171 -0.1523  0.3347 -0.0794
 1282SOL    HW1 3887   2.233   2.976   0.247 -2.0875 -0.4092 -1.4995
 1282SOL    HW2 3888   2.209   3.063   0.125  1.1260  1.3250 -1.0063
 1283SOL     OW 3889   2.562   2.728   0.639 -0.8648  0.4217 -0.1497
 1283SOL    HW1 3890   2.565   2.821   0.619 -0.8422 -0.2179 -3.6730
 1283SOL    HW2 3891   2.636   2.690   0.593 -2.6460 -1.7013 -1.5240
 1284SOL     OW 3892   3.002   3.469   0.016 -0.3744 -0.0815 -0.0424
 1284SOL    HW1 3893   2.968   3.381  -0.004 -0.8637 -0.1406  0.9598
 1284SOL    HW2 3894   2.940   3.504   0.081  0.4130  0.5810  0.3697
 1285SOL     OW 3895   3.414   3.257   1.292 -0.6445 -0.0796 -0.1120
 1285SOL    HW1 3896   3.431   3.350   1.301  2.4669 -0.5857  0.5379
 1285SOL    HW2 3897   3.461   3.217   1.365 -0.1166 -2.2973 -1.5564
 1286SOL     OW 3898   3.459   2.811   0.558  0.3050  0.4622 -0.0694
 1286SOL    HW1 3899   3.381   2.844   0.601  0.5422  1.9543 -0.7224
 1286SOL    HW2 3900   3.427   2.773   0.476  0.1675  0.1657  0.1194
 1287SOL     OW 3901   2.010   3.242   1.352  0.9074  0.2695  0.1152
 1287SOL    HW1 3902   2.065   3.274   1.281 -2.2015  1.2289 -2.0859
 1287SOL    HW2 3903   2.068   3.238   1.428  3.7477  1.8714 -1.7870
 1288SOL     OW 3904   2.535   2.949   1.597  0.1259  0.1107 -0.1517
 1288SOL    HW1 3905   2.623   2.963   1.633  0.1556  0.1213 -0.2296
 1288SOL    HW2 3906   2.478   2.996   1.658  0.0963 -0.5603  0.3381
 1289SOL     OW 3907   2.667   2.446   1.811 -0.0201 -0.4525 -0.1096
 1289SOL    HW1 3908   2.702   2.400   1.734  0.0633 -0.0535 -0.3140
 1289SOL    HW2 3909   2.738   2.443   1.875  0.1714 -0.1769 -0.3040
 1290SOL     OW 3910   2.432   1.904   1.415 -0.5320  0.1510  0.0996
 1290SOL    HW1 3911   2.341   1.878   1.407 -0.5160 -0.0455  0.5299
 1290SOL    HW2 3912   2.436   1.956   1.495 -0.7811  2.5147 -1.3232
 1291SOL     OW 3913   2.789   2.615   0.845 -0.2672 -0.4497 -0.3456
 1291SOL    HW1 3914   2.703   2.587   0.876 -1.0260  0.6137 -1.3477
 1291SOL    HW2 3915   2.815   2.684   0.905 -0.0318 -0.8882  0.0578
 1292SOL     OW 3916   2.968   2.994   0.795  0.4529 -0.2858 -0.2797
 1292SOL    HW1 3917   2.891   3.025   0.747  0.6024 -0.1877 -0.4610
 1292SOL    HW2 3918   3.037   3.057   0.771  0.5936 -0.3864 -0.1375
 1293SOL     OW 3919   2.126   1.931   1.018 -0.0668  0.3336  0.3560
 1293SOL    HW1 3920   2.178   2.010   1.034  0.2292  0.5470 -1.4742
 1293SOL    HW2 3921   2.049   1.963   0.970  0.2577 -0.5259 -0.7618
 1294SOL     OW 3922   1.531   3.080   1.702  0.1620  0.5005 -0.3083
 1294SOL    HW1 3923   1.587   3.151   1.732  0.9378  0.3377 -1.3035
 1294SOL    HW2 3924   1.520   3.096   1.609 -1.2297  0.3609 -0.1834
 1295SOL     OW 3925   2.798   2.357   1.167  0.1779  0.4970 -0.6661
 1295SOL    HW1 3926   2.823   2.449   1.177 -2.1106  1.2812 -1.3841
 1295SOL    HW2 3927   2.704   2.360   1.147  0.4164 -1.8802 -2.6914
 1296SOL     OW 3928   2.098   2.234   0.372  0.3758 -0.5546  0.8675
 1296SOL    HW1 3929   2.091   2.261   0.463  2.1603  0.7588  0.6619
 1296SOL    HW2 3930   2.077   2.312   0.321  0.5221 -0.9556  0.1707
 1297SOL     OW 3931   2.928   2.168   0.524  0.2162  0.0569 -0.4461
 1297SOL    HW1 3932   2.861   2.105   0.549 -0.0458  0.0299 -1.1703
 1297SOL    HW2 3933   3.010   2.128   0.552  0.0907 -0.8046 -1.2535
 1298SOL     OW 3934   3.523   3.307   1.760  0.2360 -0.1828  0.5429
 1298SOL    HW1 3935   3.541   3.285   1.668  1.3853  2.2018  0.1320
 1298SOL    HW2 3936   3.434   3.342   1.758  0.7667  1.2120  0.0311
 1299SOL     OW 3937   2.396   2.690   1.622  0.2983 -0.1600  0.2684
 1299SOL    HW1 3938   2.368   2.643   1.700 -0.7104  2.5194  1.6516
 1299SOL    HW2 3939   2.461   2.753   1.653  2.1681 -1.0141 -1.6260
 1300SOL     OW 3940   3.139   3.214   0.743  0.1302  0.4794  0.2194
 1300SOL    HW1 3941   3.207   3.280   0.739  0.1846  0.5129  1.4089
 1300SOL    HW2 3942   3.062   3.260   0.778 -0.9117  0.7448 -2.2522
 1301SOL     OW 3943   2.081   2.924   0.815 -0.1212 -0.0002 -0.1082
 1301SOL    HW1 3944   2.047   2.941   0.728 -0.1899 -0.4879 -0.1803
 1301SOL    HW2 3945   2.176   2.917   0.802 -0.2349 -1.4099 -0.3850
 1302SOL     OW 3946   2.388   2.522   0.665 -0.1429 -0.0223 -0.1127
 1302SOL    HW1 3947   2.377   2.517   0.760 -2.7722 -0.1075 -0.3485
 1302SOL    HW2 3948   2.467   2.574   0.652  0.4401 -0.2643  2.0980
 1303SOL     OW 3949   2.832   2.745   1.262  0.3982  0.0671 -0.2626
 1303SOL    HW1 3950   2.749   2.700   1.247  0.5309  0.1893 -1.4534
 1303SOL    HW2 3951   2.899   2.680   1.239  0.6140  0.3724 -0.5092
 1304SOL     OW 3952   2.936   2.213   1.360 -0.0305 -0.5153 -0.1656
 1304SOL    HW1 3953   2.885   2.248   1.287 -2.2959 -1.8346  0.6875
 1304SOL    HW2 3954   2.961   2.125   1.333  1.1873 -0.1802 -0.2335
 1305SOL     OW 3955   2.006   3.056   0.289  0.4365  0.4663 -0.2252
 1305SOL    HW1 3956   1.918   3.090   0.271  0.3410  0.4174  0.1433
 1305SOL    HW2 3957   2.065   3.119   0.248  0.2441  0.7964  0.0014
 1306SOL     OW 3958   2.102   3.752   0.943 -0.1593  0.6385 -0.0290
 1306SOL    HW1 3959   2.174   3.769   1.004 -0.4662 -1.8645  1.1837
 1306SOL    HW2 3960   2.058   3.675   0.980 -2.1892  0.8332 -1.8634
 1307SOL     OW 3961   2.176   3.493   0.739  0.0795 -0.1214  0.0362
 1307SOL    HW1 3962   2.253   3.514   0.686 -0.2175  1.3399  0.1307
 1307SOL    HW2 3963   2.108   3.553   0.707 -0.5164 -0.2016  1.1098
 1308SOL     OW 3964   3.189   2.452   1.006 -0.6032 -0.2953  0.0977
 1308SOL    HW1 3965   3.173   2.364   0.972  0.1035 -0.6001  0.5586
 1308SOL    HW2 3966   3.140   2.509   0.946 -1.9113 -1.0641  0.4024
 1309SOL     OW 3967   1.951   2.338   0.903 -0.4579 -0.9109  0.3990
 1309SOL    HW1 3968   2.040   2.368   0.886 -0.4818  0.9454  2.9894
 1309SOL    HW2 3969   1.894   2.401   0.858 -0.4536 -0.5484  0.8889
 1310SOL     OW 3970   2.217   2.711   1.379 -0.0874  0.6128  0.4284
 1310SOL    HW1 3971   2.286   2.703   1.445  0.3499  1.4110  0.0794
 1310SOL    HW2 3972   2.138   2.732   1.429 -0.2777 -1.1043  0.9088
 1311SOL     OW 3973   2.430   2.386   0.282  0.1803 -0.2938  0.1823
 1311SOL    HW1 3974   2.521   2.414   0.292  0.2302 -0.5101  0.3345
 1311SOL    HW2 3975   2.425   2.349   0.194 -0.5805  2.8587 -1.2217
 1312SOL     OW 3976   3.690   2.341   1.104  0.1433  0.3537 -0.2925
 1312SOL    HW1 3977   3.749   2.370   1.174 -2.7008 -0.4585  2.6905
 1312SOL    HW2 3978   3.617   2.403   1.108 -1.0382 -0.9510 -1.1604
 1313SOL     OW 3979   2.204   3.524   1.393 -0.2170 -0.6248 -0.6380
 1313SOL    HW1 3980   2.178   3.550   1.482  1.0347  1.4260 -0.7843
 1313SOL    HW2 3981   2.138   3.562   1.336 -0.5920 -1.2644 -0.6312
 1314SOL     OW 3982   2.303   2.018   0.660 -0.4004  0.2548 -0.0192
 1314SOL    HW1 3983   2.237   1.952   0.640 -1.3112  0.7604  1.2094
 1314SOL    HW2 3984   2.323   2.058   0.575 -0.8123 -0.6824 -0.5736
 1315SOL     OW 3985   2.782   3.525   1.634 -0.2911 -0.0931  0.5413
 1315SOL    HW1 3986   2.855   3.499   1.690 -0.8965  1.2533  2.0061
 1315SOL    HW2 3987   2.816   3.595   1.580  0.1144 -0.9779 -0.3841
 1316SOL     OW 3988   2.098   2.986   1.095  0.7588 -0.4254 -0.1544
 1316SOL    HW1 3989   2.035   2.943   1.151 -0.0522 -0.7116 -1.2534
 1316SOL    HW2 3990   2.062   2.978   1.007  1.0025  1.7501 -0.5112
 1317SOL     OW 3991   3.838   3.546   1.382 -0.0553 -0.1794 -0.2654
 1317SOL    HW1 3992   3.817   3.488   1.309 -1.1536  0.0967 -0.1925
 1317SOL    HW2 3993   3.781   3.622   1.370  1.9338  1.2796 -0.8036
 1318SOL     OW 3994   3.327   3.132   1.056 -0.1100 -0.1038 -0.0467
 1318SOL    HW1 3995   3.348   3.164   1.144  0.6955 -1.9891  0.5048
 1318SOL    HW2 3996   3.403   3.156   1.003 -0.6897  1.2256 -0.3137
 1319SOL     OW 3997   1.832   2.871   1.124  0.1183 -0.4051 -0.4423
 1319SOL    HW1 3998   1.809   2.946   1.179 -1.5968 -0.2545 -1.3088
 1319SOL    HW2 3999   1.748   2.833   1.098  0.9060 -1.3275 -1.7856
 1320SOL     OW 4000   2.561   3.609   1.801 -0.3295  0.3910  0.3088
 1320SOL    HW1 4001   2.494   3.542   1.797 -1.9940  1.9609  0.6726
 1320SOL    HW2 4002   2.618   3.590   1.726 -1.9829 -0.1842 -0.8666
 1321SOL     OW 4003   3.096   3.514   0.861  0.2498 -0.6943  0.4476
 1321SOL    HW1 4004   3.175   3.509   0.806 -0.3837  0.3936 -0.6049
 1321SOL    HW2 4005   3.042   3.580   0.819 -1.3009 -1.5196  1.0830
 1322SOL     OW 4006   2.101   3.554   1.645  0.0065  0.4309 -0.3905
 1322SOL    HW1 4007   2.150   3.545   1.727  0.7495  0.2704 -0.8474
 1322SOL    HW2 4008   2.012   3.525   1.667  0.6175 -1.2740 -0.0741
 1323SOL     OW 4009   3.141   3.129   0.476 -0.0734  0.3566 -0.1855
 1323SOL    HW1 4010   3.117   3.154   0.565 -0.5828 -1.4857  0.2315
 1323SOL    HW2 4011   3.205   3.195   0.449 -0.7527  1.5879  1.1139
 1324SOL     OW 4012   2.603   3.181   1.233 -0.3024  0.1019  0.3092
 1324SOL    HW1 4013   2.539   3.137   1.290 -0.2566 -0.3842 -0.0054
 1324SOL    HW2 4014   2.678   3.121   1.232 -0.6072 -0.2917 -0.8932
 1325SOL     OW 4015   3.228   1.867   1.144 -0.2275 -0.3971 -0.5146
 1325SOL    HW1 4016   3.302   1.888   1.087 -0.9428 -0.7928 -1.6330
 1325SOL    HW2 4017   3.214   1.773   1.131 -2.6584  0.1131 -2.5669
 1326SOL     OW 4018   2.086   1.827   0.713  0.2607 -0.6870  0.1359
 1326SOL    HW1 4019   2.008   1.863   0.673  1.1417  0.8963 -0.2392
 1326SOL    HW2 4020   2.089   1.866   0.801  0.0798 -1.5661  0.5429
 1327SOL     OW 4021   2.752   2.970   1.388 -0.3033 -0.4005  0.0466
 1327SOL    HW1 4022   2.796   2.892   1.357 -1.2077 -0.3729 -1.3897
 1327SOL    HW2 4023   2.698   2.940   1.461 -0.3240 -1.0409 -0.2261
 1328SOL     OW 4024   2.374   2.975   1.106 -0.0020  0.2225 -0.8407
 1328SOL    HW1 4025   2.383   2.972   1.201  0.5112 -0.2701 -0.9011
 1328SOL    HW2 4026   2.280   2.982   1.091 -0.1664 -0.6527 -0.3106
 1329SOL     OW 4027   2.828   3.134   0.604 -0.4823 -0.0346  0.0049
 1329SOL    HW1 4028   2.834   3.177   0.519  0.4999 -0.8513 -0.3643
 1329SOL    HW2 4029   2.772   3.192   0.657 -1.7419  0.0969 -1.4164
 1330SOL     OW 4030   2.740   1.952   0.671  0.8614  0.1249  0.1190
 1330SOL    HW1 4031   2.667   1.939   0.610  0.7210  0.3268  0.2417
 1330SOL    HW2 4032   2.704   2.009   0.740  0.9315 -0.3392  0.5427
 1331SOL     OW 4033   2.410   3.143   0.372 -0.0287  0.0409  0.0993
 1331SOL    HW1 4034   2.446   3.222   0.332 -0.0149 -0.3766 -0.7283
 1331SOL    HW2 4035   2.387   3.086   0.298 -0.9353 -0.3376  0.6497
 1332SOL     OW 4036   3.367   2.419   1.412  0.1637  0.0994  0.0204
 1332SOL    HW1 4037   3.276   2.434   1.387  0.1763 -0.5884 -0.4564
 1332SOL    HW2 4038   3.362   2.356   1.483  0.3101 -0.6610 -0.6341
 1333SOL     OW 4039   2.105   3.445   0.381 -0.1388 -0.1082  0.2704
 1333SOL    HW1 4040   2.081   3.366   0.428  0.1726 -0.1215  0.4067
 1333SOL    HW2 4041   2.185   3.476   0.424  0.0910 -0.0666 -0.1792
 1334SOL     OW 4042   2.176   2.861   1.634  0.5136 -0.2381 -0.0908
 1334SOL    HW1 4043   2.099   2.808   1.612  1.1415 -0.7836 -1.0190
 1334SOL    HW2 4044   2.247   2.797   1.644  1.2282  0.4018 -0.9695
 1335SOL     OW 4045   2.554   2.280   1.074  0.3471  0.3803 -0.0521
 1335SOL    HW1 4046   2.541   2.239   1.159 -0.7034 -1.0198 -0.8281
 1335SOL    HW2 4047   2.571   2.206   1.015  2.3696  1.4014 -0.8618
 1336SOL     OW 4048   4.122   4.220   2.908  0.1033 -0.2584  0.1217
 1336SOL    HW1 4049   4.055   4.181   2.852 -0.1370 -1.3289  1.1321
 1336SOL    HW2 4050   4.142   4.304   2.866  0.2403 -1.1997 -1.7944
 1337SOL     OW 4051   3.440   2.460   1.145 -0.3990 -0.6770 -0.5962
 1337SOL    HW1 4052   3.418   2.466   1.238  0.4285  1.5748 -0.4787
 1337SOL    HW2 4053   3.359   2.487   1.100 -0.7577 -1.6380 -0.5461
 1338SOL     OW 4054   1.926   1.854   0.066  0.4139 -0.1835 -0.4285
 1338SOL    HW1 4055   1.971   1.919   0.012  1.7632 -1.0148 -0.3594
 1338SOL    HW2 4056   1.918   1.896   0.152 -0.1010  0.4578 -0.7836
 1339SOL     OW 4057   2.095   2.530   1.159 -0.5242  0.0410 -0.0355
 1339SOL    HW1 4058   2.001   2.521   1.176 -0.1194 -0.9665  1.9650
 1339SOL    HW2 4059   2.128   2.582   1.233  0.8529 -1.7441  0.6813
 1340SOL     OW 4060   3.656   3.665   1.175 -0.5330  0.7423 -0.3682
 1340SOL    HW1 4061   3.600   3.602   1.220  1.1068  1.2798  2.7401
 1340SOL    HW2 4062   3.688   3.619   1.098 -0.8204 -1.5755  0.8231
 1341SOL     OW 4063   2.541   2.432   1.495  0.2854 -0.4735 -0.1143
 1341SOL    HW1 4064   2.514   2.498   1.558  1.8904  2.9384 -2.6538
 1341SOL    HW2 4065   2.459   2.396   1.461 -0.6207 -0.4629  1.9566
 1342SOL     OW 4066   3.588   2.930   1.614  0.2180 -0.0305 -0.0587
 1342SOL    HW1 4067   3.522   2.864   1.593  0.6468 -0.1836 -1.0062
 1342SOL    HW2 4068   3.612   2.913   1.705  0.1334 -1.0109 -0.2125
 1343SOL     OW 4069   2.409   3.553   1.209  0.0284  0.2588  0.2919
 1343SOL    HW1 4070   2.334   3.558   1.268  0.5525  0.1845  0.9831
 1343SOL    HW2 4071   2.485   3.544   1.267  0.6489  1.0819 -0.3582
 1344SOL     OW 4072   3.540   2.894   0.912 -0.0960 -0.2887  0.0529
 1344SOL    HW1 4073   3.526   2.967   0.853  2.5412 -0.2557 -0.6682
 1344SOL    HW2 4074   3.605   2.925   0.975 -0.0653 -1.5229  0.6767
 1345SOL     OW 4075   3.252   2.055   0.436  0.1782 -0.2180 -0.1057
 1345SOL    HW1 4076   3.221   2.013   0.356  1.2254 -1.6497  0.2052
 1345SOL    HW2 4077   3.246   2.149   0.417  1.6622 -0.5059 -2.3797
 1346SOL     OW 4078   2.617   2.970   0.457 -0.1178 -0.2424 -0.4455
 1346SOL    HW1 4079   2.673   3.029   0.507 -0.7356  0.6586 -0.7952
 1346SOL    HW2 4080   2.541   3.023   0.434 -0.6911 -1.1825 -0.7633
 1347SOL     OW 4081   3.349   1.925   1.640 -0.1925 -0.2280  0.2992
 1347SOL    HW1 4082   3.400   1.886   1.568  1.0855  3.1131 -0.8124
 1347SOL    HW2 4083   3.270   1.958   1.598  0.3266  1.3017  0.4767
 1348SOL     OW 4084   2.505   3.456   0.683  0.2688  0.7603 -0.0575
 1348SOL    HW1 4085   2.475   3.507   0.758 -0.1647  0.4128  0.0106
 1348SOL    HW2 4086   2.520   3.368   0.719  1.1097  0.8565 -0.1480
 1349SOL     OW 4087   2.588   3.002   0.933  0.3421 -0.5159  0.2360
 1349SOL    HW1 4088   2.511   2.991   0.990 -0.0952 -0.5968 -0.3611
 1349SOL    HW2 4089   2.660   2.963   0.983  0.0156 -0.3576  0.8409
 1350SOL     OW 4090   3.302   3.174   0.180  0.1483  0.0753  0.1575
 1350SOL    HW1 4091   3.374   3.134   0.132  0.7724  1.9968 -0.6023
 1350SOL    HW2 4092   3.231   3.109   0.175  1.1833 -1.0373 -0.7407
 1351SOL     OW 4093   4.393   3.195   0.880  0.2334  0.1492  0.4645
 1351SOL    HW1 4094   4.327   3.198   0.949  1.1893  1.5067  1.3697
 1351SOL    HW2 4095   4.446   3.118   0.900  1.0726  1.0478  1.8232
 1352SOL     OW 4096   2.080   3.108   1.697  0.1721 -0.2838  0.4473
 1352SOL    HW1 4097   2.108   3.018   1.676  0.4208 -0.0155 -0.4137
 1352SOL    HW2 4098   2.148   3.164   1.659  0.3502  0.2577  1.5376
 1353SOL     OW 4099   1.741   3.126   0.569 -0.2874 -0.1204 -0.0351
 1353SOL    HW1 4100   1.774   3.093   0.652 -1.6735 -0.3684  0.4331
 1353SOL    HW2 4101   1.710   3.215   0.589 -1.1027 -0.3719 -0.1539
 1354SOL     OW 4102   2.698   3.283   1.735 -0.0966 -0.1188  0.3072
 1354SOL    HW1 4103   2.616   3.311   1.775 -0.3092 -0.3030  0.0021
 1354SOL    HW2 4104   2.718   3.352   1.672 -0.4855 -0.5153 -0.2591
 1355SOL     OW 4105   3.673   2.009   1.458  0.0134 -0.2919 -0.1195
 1355SOL    HW1 4106   3.617   2.052   1.523  1.5813 -0.3887  1.3790
 1355SOL    HW2 4107   3.641   2.040   1.374 -2.8400 -1.0068  0.5776
 1356SOL     OW 4108   2.303   2.575   0.418  0.1602 -0.7263 -0.1683
 1356SOL    HW1 4109   2.365   2.524   0.367 -1.3650 -0.8545 -1.9928
 1356SOL    HW2 4110   2.323   2.553   0.509  2.5797 -0.9434 -0.6836
 1357SOL     OW 4111   3.845   3.352   1.145  0.1352 -1.2112  0.3846
 1357SOL    HW1 4112   3.914   3.377   1.084 -0.1136 -0.0449  0.5650
 1357SOL    HW2 4113   3.786   3.298   1.092 -0.1606 -0.0906 -0.4792
 1358SOL     OW 4114   2.267   2.171   1.208 -0.4533 -0.0733 -0.2839
 1358SOL    HW1 4115   2.352   2.128   1.194 -0.0532  0.8768 -0.8564
 1358SOL    HW2 4116   2.266   2.193   1.301  0.5063  1.0641 -0.5136
 1359SOL     OW 4117   2.772   3.792   0.294  0.2630 -0.4103  0.0898
 1359SOL    HW1 4118   2.736   3.805   0.382 -0.0752 -0.2898 -0.0657
 1359SOL    HW2 4119   2.710   3.836   0.236  0.1364 -1.0526 -0.2690
 1360SOL     OW 4120   3.314   2.175   1.117  0.1526 -0.1218  0.0197
 1360SOL    HW1 4121   3.358   2.119   1.182 -0.2802 -1.2186 -0.6128
 1360SOL    HW2 4122   3.369   2.254   1.113  0.5838 -0.3369  1.1882
 1361SOL     OW 4123   2.803   1.866   0.970 -0.1266  0.6749  0.0715
 1361SOL    HW1 4124   2.872   1.804   0.947 -0.4712  0.7239 -1.1465
 1361SOL    HW2 4125   2.849   1.949   0.986  0.3043  0.2089  1.4383
 1362SOL     OW 4126   2.745   3.268   0.364  0.2776 -0.3311 -0.3578
 1362SOL    HW1 4127   2.806   3.228   0.302 -0.3709 -0.8502 -0.6827
 1362SOL    HW2 4128   2.687   3.321   0.310  0.5391  0.3051 -0.0300
 1363SOL     OW 4129   2.696   3.446   1.131  0.2477  0.2766  0.2097
 1363SOL    HW1 4130   2.689   3.360   1.173  4.8848  0.0407  0.9227
 1363SOL    HW2 4131   2.687   3.508   1.203 -0.2550  0.2856  0.1440
 1364SOL     OW 4132   3.230   2.832   0.710  0.3267  0.0490  0.1940
 1364SOL    HW1 4133   3.178   2.761   0.747  0.1730 -0.4932 -1.0268
 1364SOL    HW2 4134   3.169   2.881   0.655  1.0958 -0.7136 -1.4237
 1365SOL     OW 4135   3.469   1.947   1.009 -0.4100  0.1509  0.0929
 1365SOL    HW1 4136   3.495   1.996   0.931  1.8366 -0.0203  0.6576
 1365SOL    HW2 4137   3.440   1.862   0.976 -0.0099  0.2770 -0.5986
 1366SOL     OW 4138   1.975   2.955   0.568 -0.0595 -0.0789 -0.2887
 1366SOL    HW1 4139   1.880   2.951   0.574 -0.0746  1.2780  0.8051
 1366SOL    HW2 4140   1.993   2.990   0.480 -0.5446 -0.6729 -0.6273
 1367SOL     OW 4141   1.996   2.664   1.854 -0.0083  0.8938 -0.3261
 1367SOL    HW1 4142   1.919   2.676   1.798 -1.9969  2.7305  2.5533
 1367SOL    HW2 4143   2.018   2.753   1.883  2.1434  0.2022  0.3128
 1368SOL     OW 4144   0.013   4.311   0.056 -0.6375  0.1251  0.9887
 1368SOL    HW1 4145   0.057   4.270   0.131 -0.4780  0.5224  1.1164
 1368SOL    HW2 4146  -0.030   4.238   0.011  0.3806 -0.3191  0.7071
 1369SOL     OW 4147   6.089   2.317   2.664  0.5417  0.1340  0.1098
 1369SOL    HW1 4148   6.015   2.361   2.705  0.6922  0.8902 -0.4211
 1369SOL    HW2 4149   6.131   2.270   2.736 -0.2601 -0.0492  0.4753
 1370SOL     OW 4150   4.758   0.762   0.827 -0.1140  0.2087  0.2547
 1370SOL    HW1 4151   4.823   0.748   0.897 -0.2083  0.0703  0.3137
 1370SOL    HW2 4152   4.735   0.855   0.834 -0.2725  0.1496  0.5377
 1371SOL     OW 4153   3.277   3.237   2.390 -0.6137 -0.0112  0.3089
 1371SOL    HW1 4154   3.322   3.311   2.349 -2.6927  1.3468  0.3436
 1371SOL    HW2 4155   3.248   3.271   2.475 -0.9656 -1.1278  0.6528
 1372SOL     OW 4156   2.949   2.621   2.441 -0.8929 -0.0613  0.0453
 1372SOL    HW1 4157   2.974   2.583   2.525 -0.0609 -2.6612 -1.2589
 1372SOL    HW2 4158   2.856   2.602   2.432 -0.7269 -0.8033 -0.1139
 1373SOL     OW 4159   3.243   2.307   2.211 -0.8949 -0.5537  0.5367
 1373SOL    HW1 4160   3.295   2.229   2.228 -0.6978 -0.0587  2.3544
 1373SOL    HW2 4161   3.285   2.376   2.262 -2.5717  0.1585  1.0174
 1374SOL     OW 4162   0.334   0.549   0.046 -0.3096  0.2661  0.0781
 1374SOL    HW1 4163   0.404   0.486   0.062 -0.9181 -0.8451 -1.2861
 1374SOL    HW2 4164   0.284   0.510  -0.026 -2.8604  0.5492  1.5517
 1375SOL     OW 4165   2.537   2.767   2.467 -0.6036  0.4467  0.6011
 1375SOL    HW1 4166   2.508   2.752   2.557 -0.9644  2.1882  0.8077
 1375SOL    HW2 4167   2.599   2.840   2.473 -0.7149  0.6611 -0.5862
 1376SOL     OW 4168   4.296   0.971   0.139 -0.1268  0.1037  0.2509
 1376SOL    HW1 4169   4.336   0.884   0.142 -0.3664 -0.1721 -2.0429
 1376SOL    HW2 4170   4.202   0.955   0.146 -0.2588  0.0077 -1.3484
 1377SOL     OW 4171   3.596   2.092   2.781 -0.3038  0.1275  0.5908
 1377SOL    HW1 4172   3.501   2.077   2.785 -0.3996 -0.5535 -2.1318
 1377SOL    HW2 4173   3.605   2.169   2.725  0.7770  0.2455  0.9097
 1378SOL     OW 4174   2.109   3.829   2.307 -0.2990 -0.0552 -0.3678
 1378SOL    HW1 4175   2.023   3.864   2.286  0.5271  1.5369 -1.3301
 1378SOL    HW2 4176   2.143   3.888   2.374  0.6720  0.3351 -1.1807
 1379SOL     OW 4177   2.075   3.393   2.203 -0.6278  0.3246  0.1331
 1379SOL    HW1 4178   2.048   3.341   2.278 -0.2200 -1.1271 -0.6825
 1379SOL    HW2 4179   2.166   3.368   2.187 -0.6389  0.7600 -0.7097
 1380SOL     OW 4180   2.171   2.620   3.021  0.0202  0.1430  0.2460
 1380SOL    HW1 4181   2.171   2.530   2.986  2.7227  0.2493 -0.2865
 1380SOL    HW2 4182   2.191   2.675   2.945  1.9099  0.7982  1.1556
 1381SOL     OW 4183   2.038   2.645   2.503  0.2124  0.3626  0.4732
 1381SOL    HW1 4184   2.091   2.665   2.425 -0.1174 -0.6487 -0.0184
 1381SOL    HW2 4185   1.981   2.573   2.476 -0.7116  0.7594  1.3137
 1382SOL     OW 4186   1.697   4.160   0.312  0.3044  0.1034  0.1139
 1382SOL    HW1 4187   1.790   4.147   0.295  0.4040  0.5539  0.2891
 1382SOL    HW2 4188   1.688   4.255   0.321 -0.0321  0.0057  0.8903
 1383SOL     OW 4189   6.198   2.623   2.716 -0.3566  0.3436 -0.4694
 1383SOL    HW1 4190   6.269   2.634   2.654  0.0861 -1.3100 -0.3058
 1383SOL    HW2 4191   6.220   2.544   2.764 -1.1203  1.1124  1.2290
 1384SOL     OW 4192   3.747   3.468   2.273  0.1363 -0.2270  0.2841
 1384SOL    HW1 4193   3.723   3.381   2.240  0.7938 -0.2839 -0.0724
 1384SOL    HW2 4194   3.827   3.452   2.323 -0.7630 -0.1189  1.8052
 1385SOL     OW 4195   1.803   3.178   1.740 -0.7498 -0.0665  0.4147
 1385SOL    HW1 4196   1.892   3.144   1.747  0.0399  1.5839 -0.9188
 1385SOL    HW2 4197   1.787   3.219   1.825  0.7928  1.8590 -0.1576
 1386SOL     OW 4198   3.347   2.773   2.360  0.2705 -0.1174 -0.0913
 1386SOL    HW1 4199   3.396   2.793   2.440  2.9742 -0.8414 -1.4633
 1386SOL    HW2 4200   3.310   2.857   2.333  2.5342  0.9471 -0.0876
 1387SOL     OW 4201   3.333   2.679   2.081  0.7147 -0.8068  0.0751
 1387SOL    HW1 4202   3.277   2.746   2.122  0.4600 -1.1954  0.3721
 1387SOL    HW2 4203   3.422   2.705   2.102  0.7453  0.6227 -1.6093
 1388SOL     OW 4204   2.469   2.985   2.773  0.0857 -0.0835  0.2026
 1388SOL    HW1 4205   2.415   3.053   2.730  0.2215 -1.7684 -2.9644
 1388SOL    HW2 4206   2.431   2.903   2.742 -0.0414 -1.5784  3.8752
 1389SOL     OW 4207   2.599   2.045   2.425 -0.4128 -0.0693 -0.4617
 1389SOL    HW1 4208   2.571   2.119   2.479  1.2585  0.7856 -0.7184
 1389SOL    HW2 4209   2.543   2.048   2.348  0.3863  1.6505 -1.0097
 1390SOL     OW 4210   4.075   0.493   0.077  0.2318  0.4021 -0.0810
 1390SOL    HW1 4211   4.028   0.565   0.034 -2.0240 -2.0515 -2.0205
 1390SOL    HW2 4212   4.152   0.480   0.023  0.5850  1.2237  0.2015
 1391SOL     OW 4213   3.024   2.794   2.255 -0.2547 -0.6337 -0.1161
 1391SOL    HW1 4214   3.037   2.870   2.312 -0.0633 -0.2253 -0.6953
 1391SOL    HW2 4215   2.999   2.724   2.315  0.5887 -0.3818  0.5520
 1392SOL     OW 4216   0.780   1.200  -0.011 -0.3814  0.2589 -0.3670
 1392SOL    HW1 4217   0.860   1.186  -0.061  0.0334 -0.5268  0.4758
 1392SOL    HW2 4218   0.809   1.246   0.068 -0.7990  0.2275 -0.1906
 1393SOL     OW 4219   3.629   3.689   2.162 -0.2946  0.0695 -0.4338
 1393SOL    HW1 4220   3.575   3.660   2.089 -1.3426  1.5840 -0.3265
 1393SOL    HW2 4221   3.677   3.611   2.190 -1.3066 -0.9794 -1.5079
 1394SOL     OW 4222   2.471   2.621   2.146 -0.4707  0.0751 -0.5802
 1394SOL    HW1 4223   2.556   2.583   2.166 -0.5438  1.3673  2.8947
 1394SOL    HW2 4224   2.418   2.548   2.116  1.0791 -1.3053 -0.0884
 1395SOL     OW 4225   3.152   6.170   2.793 -0.1328 -0.2530  0.0638
 1395SOL    HW1 4226   3.127   6.089   2.838  0.5719 -0.5734 -0.1090
 1395SOL    HW2 4227   3.070   6.219   2.784 -0.7029 -1.3002 -0.5418
 1396SOL     OW 4228   3.750   3.321   1.926 -0.4212 -0.3689 -0.1993
 1396SOL    HW1 4229   3.767   3.414   1.913 -1.2097 -0.1370  0.3907
 1396SOL    HW2 4230   3.702   3.295   1.848  1.9069 -0.8834 -1.5766
 1397SOL     OW 4231   2.344   2.903   2.315  0.3879  0.5497 -0.5028
 1397SOL    HW1 4232   2.280   2.855   2.265  0.0056  2.5977 -2.1325
 1397SOL    HW2 4233   2.399   2.836   2.356 -1.4866 -1.2120 -0.7404
 1398SOL     OW 4234   2.177   2.567   2.730 -0.0627  0.0333 -0.2586
 1398SOL    HW1 4235   2.151   2.598   2.643 -1.2884  0.0444  0.0833
 1398SOL    HW2 4236   2.169   2.472   2.725  1.1638 -0.0639 -0.5406
 1399SOL     OW 4237   3.125   2.402   1.715  0.3016  0.1563 -0.1145
 1399SOL    HW1 4238   3.121   2.413   1.810 -0.7713 -0.5354 -0.0570
 1399SOL    HW2 4239   3.183   2.327   1.701  0.0994 -0.0278  0.0266
 1400SOL     OW 4240   2.947   3.228   2.493  0.0261  0.0669 -0.2235
 1400SOL    HW1 4241   2.951   3.275   2.576  0.3076 -0.0368 -0.1775
 1400SOL    HW2 4242   2.853   3.216   2.477 -0.0209 -1.0676  0.7337
 1401SOL     OW 4243   2.636   6.204   2.841  0.2518  0.2641 -0.2269
 1401SOL    HW1 4244   2.574   6.215   2.914 -0.5658  0.1454 -0.8934
 1401SOL    HW2 4245   2.622   6.281   2.786  1.2692  0.6381  0.0268
 1402SOL     OW 4246   2.661   3.285   2.331 -0.8617 -0.1027 -0.1582
 1402SOL    HW1 4247   2.706   3.281   2.247 -0.9429 -1.2295 -0.1604
 1402SOL    HW2 4248   2.622   3.198   2.342 -1.9256  0.4372  0.4545
 1403SOL     OW 4249   1.991   3.420   2.608  0.1810 -0.3603  0.2987
 1403SOL    HW1 4250   2.085   3.437   2.613 -0.0900  0.7999  2.0591
 1403SOL    HW2 4251   1.957   3.492   2.554  0.0149  0.6164  1.6590
 1404SOL     OW 4252   3.367   3.144   2.771  0.0062 -0.8763 -0.7254
 1404SOL    HW1 4253   3.450   3.100   2.790  0.5284  0.1446 -0.5780
 1404SOL    HW2 4254   3.313   3.077   2.728  0.1883 -2.1346  0.9047
 1405SOL     OW 4255   2.193   2.685   2.229  0.2882  0.9338 -0.0671
 1405SOL    HW1 4256   2.279   2.653   2.203 -0.1039  0.8696 -1.3661
 1405SOL    HW2 4257   2.133   2.614   2.207 -0.1001  0.9464  0.9005
 1406SOL     OW 4258   3.045   2.766   2.848 -0.1384 -0.1737  0.1299
 1406SOL    HW1 4259   2.967   2.741   2.897  0.8914 -1.1177  1.3795
 1406SOL    HW2 4260   3.056   2.696   2.783 -0.5518  0.1938 -0.3517
 1407SOL     OW 4261   3.220   3.247   1.964 -0.0453 -0.0126  0.0065
 1407SOL    HW1 4262   3.183   3.204   2.041  0.5981 -0.2655  0.1852
 1407SOL    HW2 4263   3.191   3.195   1.890  0.1193 -0.3300  0.1637
 1408SOL     OW 4264   3.283   3.021   2.234 -0.5629  0.0423  0.1627
 1408SOL    HW1 4265   3.193   3.015   2.202 -0.6508 -0.1150  0.4354
 1408SOL    HW2 4266   3.282   3.096   2.294 -0.6417 -0.3001  0.5877
 1409SOL     OW 4267   1.884   3.343   1.985 -0.1022  0.0109  0.0276
 1409SOL    HW1 4268   1.819   3.293   2.035  0.1150 -0.0011  0.2997
 1409SOL    HW2 4269   1.944   3.378   2.051  2.7503 -3.5087 -0.3195
 1410SOL     OW 4270   3.181   2.178   2.650 -0.2516 -0.0766  0.3984
 1410SOL    HW1 4271   3.179   2.185   2.746 -0.0813 -0.5506  0.4387
 1410SOL    HW2 4272   3.251   2.238   2.623  0.8277 -1.1703  0.6952
 1411SOL     OW 4273   2.331   3.246   2.709 -0.0731  0.1379  0.0170
 1411SOL    HW1 4274   2.289   3.211   2.631 -2.5482  1.2809  0.7127
 1411SOL    HW2 4275   2.291   3.333   2.720  0.7514  0.3063  2.1241
 1412SOL     OW 4276   2.300   2.414   2.085  0.1115  0.2335 -0.2528
 1412SOL    HW1 4277   2.299   2.332   2.036 -0.5023  0.9138 -1.4253
 1412SOL    HW2 4278   2.210   2.447   2.079  0.0745  0.4414  1.1724
 1413SOL     OW 4279   2.827   2.008   2.226 -0.1587 -0.3727  0.3795
 1413SOL    HW1 4280   2.872   2.088   2.199 -0.6551 -0.3005 -0.2818
 1413SOL    HW2 4281   2.804   2.023   2.317  0.4011 -0.0686  0.4790
 1414SOL     OW 4282   3.338   2.238   2.933 -0.2000  0.3582 -0.1701
 1414SOL    HW1 4283   3.363   2.157   2.977 -0.0235  0.1449 -0.6580
 1414SOL    HW2 4284   3.402   2.303   2.963  1.7197 -0.4428 -2.2919
 1415SOL     OW 4285   0.295   1.117   0.145  0.1173  0.1403  0.0617
 1415SOL    HW1 4286   0.388   1.102   0.131  0.0099  0.4563 -1.1123
 1415SOL    HW2 4287   0.251   1.050   0.092 -0.3156  1.6986 -1.6792
 1416SOL     OW 4288   2.716   2.354   2.679  0.2688  0.0924  0.1670
 1416SOL    HW1 4289   2.724   2.416   2.606  1.3809 -0.3463 -0.1034
 1416SOL    HW2 4290   2.790   2.295   2.668 -0.3209 -0.8103  0.8841
 1417SOL     OW 4291   2.389   1.844   2.513  0.5122 -0.1905 -0.7061
 1417SOL    HW1 4292   2.437   1.921   2.545  1.3760 -0.5683 -1.0580
 1417SOL    HW2 4293   2.386   1.785   2.589  0.8589 -0.2762 -0.7543
 1418SOL     OW 4294   3.456   3.059   2.019 -0.6143 -0.6937 -0.2417
 1418SOL    HW1 4295   3.405   3.040   2.097 -0.3597 -1.5580 -0.2654
 1418SOL    HW2 4296   3.405   3.125   1.972 -1.0119 -0.5262  0.4070
 1419SOL     OW 4297   2.380   2.198   1.936 -0.3188 -0.3781 -0.4048
 1419SOL    HW1 4298   2.464   2.165   1.969 -0.7136  0.8083  1.9722
 1419SOL    HW2 4299   2.319   2.126   1.950 -0.5843  0.2267  2.1717
 1420SOL     OW 4300   2.888   2.076   1.719  0.1383  0.8331 -0.6803
 1420SOL    HW1 4301   2.842   2.159   1.707  0.0096  0.8166 -0.3070
 1420SOL    HW2 4302   2.819   2.010   1.726  0.2431  0.6551 -1.2151
 1421SOL     OW 4303   2.980   3.100   2.878 -0.1413 -0.3199  0.5550
 1421SOL    HW1 4304   2.981   3.196   2.884  0.7239 -0.2421 -0.4656
 1421SOL    HW2 4305   2.888   3.077   2.865 -0.4757  0.2924  1.7107
 1422SOL     OW 4306   1.979   2.926   2.523 -0.2213  0.0168  0.3408
 1422SOL    HW1 4307   1.905   2.948   2.580  0.4047 -0.0835  1.2208
 1422SOL    HW2 4308   1.998   2.834   2.543  0.0977  0.0240  0.0777
 1423SOL     OW 4309   3.174   3.389   2.608 -0.2857 -0.6367  0.4025
 1423SOL    HW1 4310   3.203   3.480   2.613  2.2834 -1.2600 -1.0352
 1423SOL    HW2 4311   3.181   3.357   2.698  0.5330  0.1239  0.6273
 1424SOL     OW 4312   2.469   2.803   1.905  0.4207 -0.1933 -0.1537
 1424SOL    HW1 4313   2.449   2.752   1.983  0.4044  0.2765  0.1496
 1424SOL    HW2 4314   2.557   2.774   1.880  0.3619 -0.4596 -0.0533
 1425SOL     OW 4315   3.973   4.525   0.446  0.5377  0.0239  0.6142
 1425SOL    HW1 4316   4.030   4.453   0.471  0.2694 -0.6627 -0.6524
 1425SOL    HW2 4317   4.032   4.598   0.429  0.8236  0.0748  1.7688
 1426SOL     OW 4318   2.404   6.013   2.716 -0.1623 -0.0122  0.4064
 1426SOL    HW1 4319   2.406   6.001   2.811  1.2282  0.5777  0.4600
 1426SOL    HW2 4320   2.463   5.946   2.682  0.5372  0.7633  0.0718
 1427SOL     OW 4321   3.258   2.551   2.479 -0.1894 -0.5985  0.0152
 1427SOL    HW1 4322   3.329   2.507   2.432  2.0864  1.0038  1.7329
 1427SOL    HW2 4323   3.257   2.640   2.444 -0.6404 -0.3000  0.7553
 1428SOL     OW 4324   2.885   6.254   2.745  0.1537 -0.3196  0.0611
 1428SOL    HW1 4325   2.885   6.349   2.747  0.2816 -0.2755  3.3192
 1428SOL    HW2 4326   2.810   6.228   2.798 -2.0886 -2.2079 -3.5803
 1429SOL     OW 4327   3.152   2.982   2.720 -0.1265 -0.0302 -0.3242
 1429SOL    HW1 4328   3.091   3.045   2.758  0.7288  0.8158 -0.3219
 1429SOL    HW2 4329   3.122   2.897   2.753 -1.0372  0.4153  0.0175
 1430SOL     OW 4330   3.135   2.389   2.878  1.3103  0.3347  0.0549
 1430SOL    HW1 4331   3.211   2.338   2.905 -0.4282 -2.1020  0.6747
 1430SOL    HW2 4332   3.079   2.391   2.955 -0.0307  0.5115 -0.8891
 1431SOL     OW 4333   3.469   2.439   2.341  0.4861  0.2595  0.1233
 1431SOL    HW1 4334   3.488   2.399   2.256 -1.1487  0.8487 -0.5721
 1431SOL    HW2 4335   3.554   2.470   2.372  1.0905  0.3177 -1.4550
 1432SOL     OW 4336   2.192   3.467   1.895  0.0255 -0.0598  0.1329
 1432SOL    HW1 4337   2.147   3.544   1.928  0.1630  0.0725  0.0133
 1432SOL    HW2 4338   2.136   3.393   1.919 -2.3005  0.3293 -3.4415
 1433SOL     OW 4339   3.633   3.143   2.515  0.5150  0.7111 -0.4967
 1433SOL    HW1 4340   3.676   3.213   2.563  2.5432  0.9068 -2.4116
 1433SOL    HW2 4341   3.568   3.187   2.460  0.4513  0.8667 -0.2950
 1434SOL     OW 4342   3.317   2.219   1.621  0.3595 -0.2125 -0.4406
 1434SOL    HW1 4343   3.255   2.147   1.628 -2.0084  1.8144  1.4914
 1434SOL    HW2 4344   3.394   2.190   1.669 -0.0907 -1.8599 -0.6752
 1435SOL     OW 4345   2.595   2.051   2.079  0.5356  0.0263 -0.0063
 1435SOL    HW1 4346   2.564   1.964   2.052  0.1716  0.2688 -0.4011
 1435SOL    HW2 4347   2.674   2.034   2.129  1.0525 -0.4786 -0.9555
 1436SOL     OW 4348   0.545   1.077   0.049 -0.0519  0.1827 -0.1866
 1436SOL    HW1 4349   0.637   1.104   0.052  0.0815 -0.1843 -0.6401
 1436SOL    HW2 4350   0.548   0.982   0.064 -0.5828  0.4907  2.2106
 1437SOL     OW 4351   2.555   3.325   2.056 -0.2025 -0.1324  0.2974
 1437SOL    HW1 4352   2.507   3.408   2.053  0.1027  0.0496  0.4011
 1437SOL    HW2 4353   2.501   3.268   2.111 -1.2988 -0.5764 -1.1592
 1438SOL     OW 4354   2.384   3.039   1.846  0.9839  0.0381  0.3358
 1438SOL    HW1 4355   2.302   3.036   1.896  0.3299  0.1855 -0.7049
 1438SOL    HW2 4356   2.427   2.956   1.866 -0.3759 -0.9520 -0.6595
 1439SOL     OW 4357   2.551   2.125   2.738  0.0303  0.0549  0.1505
 1439SOL    HW1 4358   2.601   2.205   2.722 -0.3968  0.3798  0.4179
 1439SOL    HW2 4359   2.469   2.138   2.689  0.8123 -1.1420 -1.6194
 1440SOL     OW 4360   3.042   3.160   2.179 -0.1586  0.4684 -0.6435
 1440SOL    HW1 4361   3.006   3.201   2.258  0.9413  2.6839 -1.2102
 1440SOL    HW2 4362   2.988   3.193   2.108  0.3329  0.4227 -1.0459
 1441SOL     OW 4363   3.422   2.360   2.626 -0.0195  0.0107  0.5557
 1441SOL    HW1 4364   3.506   2.338   2.587 -0.0199  1.4796 -0.3447
 1441SOL    HW2 4365   3.388   2.431   2.572 -1.4161  0.0697  1.4546
 1442SOL     OW 4366   0.953   0.767   0.015  0.4893 -0.2839 -0.4568
 1442SOL    HW1 4367   0.913   0.816  -0.056 -1.0716 -1.2916 -0.3175
 1442SOL    HW2 4368   0.961   0.678  -0.019  2.1772 -0.2426 -0.2784
 1443SOL     OW 4369   2.798   2.986   2.234 -0.0248 -0.2084  0.1719
 1443SOL    HW1 4370   2.892   3.003   2.245 -0.0373  0.2568 -0.4229
 1443SOL    HW2 4371   2.790   2.956   2.144 -0.4675 -0.1035  0.1770
 1444SOL     OW 4372   4.158   1.258   0.279 -0.0405  0.1434  0.1673
 1444SOL    HW1 4373   4.244   1.242   0.317  0.5061  0.9165 -0.7026
 1444SOL    HW2 4374   4.108   1.178   0.299  0.1919  0.5031  2.4872
 1445SOL     OW 4375   2.673   2.157   2.972  0.4453 -0.7288  0.0737
 1445SOL    HW1 4376   2.687   2.251   2.962 -1.1385 -0.3742  0.8802
 1445SOL    HW2 4377   2.637   2.129   2.888  0.1006 -0.4461  0.1263
 1446SOL     OW 4378   2.095   5.676   2.795 -0.2534  0.1091  0.0458
 1446SOL    HW1 4379   2.093   5.772   2.802 -0.8663  0.0270  1.1650
 1446SOL    HW2 4380   2.128   5.646   2.879  1.9466 -0.6288 -0.9996
 1447SOL     OW 4381   3.173   2.456   1.993 -0.4235 -0.3489  0.4187
 1447SOL    HW1 4382   3.221   2.383   2.031  0.8962  0.0891 -0.3119
 1447SOL    HW2 4383   3.232   2.531   2.003 -1.2148  0.3410  0.0371
 1448SOL     OW 4384   2.561   2.505   2.838  0.3610 -0.0994 -0.2302
 1448SOL    HW1 4385   2.582   2.483   2.928 -3.2104 -1.0306  0.5330
 1448SOL    HW2 4386   2.615   2.446   2.785  0.8651 -1.1346  1.3697
 1449SOL     OW 4387   2.899   2.718   1.562 -0.7909 -0.0686 -0.0818
 1449SOL    HW1 4388   2.862   2.730   1.475 -1.3546  1.1277  0.3022
 1449SOL    HW2 4389   2.954   2.640   1.554  0.2689  0.7957 -1.8535
 1450SOL     OW 4390   3.078   2.810   1.974  0.3785 -0.0742  0.3402
 1450SOL    HW1 4391   3.039   2.822   2.061  0.2749  0.3822  0.2307
 1450SOL    HW2 4392   3.103   2.717   1.973  1.6075  0.2264  1.3587
 1451SOL     OW 4393   2.550   3.458   2.964  0.4344  0.3650  0.0987
 1451SOL    HW1 4394   2.545   3.416   2.879 -0.6470  2.1826 -0.8078
 1451SOL    HW2 4395   2.570   3.388   3.025  0.1097 -1.1732 -1.4952
 1452SOL     OW 4396   2.424   2.711   2.708  0.6466  0.4334  0.7485
 1452SOL    HW1 4397   2.342   2.663   2.689  0.0190  1.6491  0.2907
 1452SOL    HW2 4398   2.479   2.647   2.753  0.0107 -0.8701 -0.2504
 1453SOL     OW 4399   2.154   2.301   2.763 -0.0883  0.3305  0.1912
 1453SOL    HW1 4400   2.207   2.316   2.841  0.0606  1.8230 -0.1602
 1453SOL    HW2 4401   2.070   2.272   2.796  0.1281  0.4889  0.8967
 1454SOL     OW 4402   1.721   3.170   2.106 -0.1333 -0.1000  0.3323
 1454SOL    HW1 4403   1.719   3.076   2.127  2.5682 -0.4483 -0.6040
 1454SOL    HW2 4404   1.650   3.208   2.159 -0.1654 -2.3889  2.0927
 1455SOL     OW 4405   6.175   3.481   2.833 -0.0418 -0.2065  0.2686
 1455SOL    HW1 4406   6.190   3.474   2.927 -0.7035 -1.0546  0.3259
 1455SOL    HW2 4407   6.262   3.472   2.794  0.2464  0.2543  0.7956
 1456SOL     OW 4408   2.148   3.079   1.980  0.4372  0.0161  0.0955
 1456SOL    HW1 4409   2.093   3.036   2.046  0.2256 -1.5524 -1.0503
 1456SOL    HW2 4410   2.093   3.081   1.901  0.9981  1.0759 -0.2917
 1457SOL     OW 4411   0.589   0.799   0.082 -0.4926  0.3040 -0.2456
 1457SOL    HW1 4412   0.624   0.710   0.088 -0.9662  0.1196 -0.1850
 1457SOL    HW2 4413   0.512   0.791   0.027 -0.5729  0.6708 -0.1888
 1458SOL     OW 4414   3.829   0.446   0.188 -0.1119 -0.4463 -0.0423
 1458SOL    HW1 4415   3.922   0.458   0.166 -0.0042  0.7857  0.9485
 1458SOL    HW2 4416   3.787   0.526   0.156 -0.5454 -0.2700  0.9267
 1459SOL     OW 4417   2.683   2.437   2.167  0.8076 -0.2149  0.0385
 1459SOL    HW1 4418   2.663   2.348   2.138  0.3661  0.3791 -1.6350
 1459SOL    HW2 4419   2.752   2.466   2.106  1.8193  0.1782  1.3373
 1460SOL     OW 4420   3.479   2.791   2.590 -0.2928  0.1860  0.2754
 1460SOL    HW1 4421   3.452   2.713   2.638 -0.8533 -1.2028 -2.1132
 1460SOL    HW2 4422   3.521   2.847   2.656 -1.2090 -1.4428  2.3617
 1461SOL     OW 4423   2.390   2.456   1.781  0.0999 -0.1107 -0.3227
 1461SOL    HW1 4424   2.481   2.463   1.810 -0.0374 -0.9323  0.3582
 1461SOL    HW2 4425   2.360   2.372   1.817 -1.1322  0.4645  0.0402
 1462SOL     OW 4426   4.187   0.934   0.560 -0.2340  0.2380 -0.3846
 1462SOL    HW1 4427   4.148   0.870   0.619  0.1889  2.1992  2.2132
 1462SOL    HW2 4428   4.264   0.890   0.524 -0.4546 -1.0225  0.6116
 1463SOL     OW 4429   3.069   2.986   2.441  0.3582  0.4101 -0.5173
 1463SOL    HW1 4430   3.046   3.079   2.440 -1.7616 -0.0504 -0.2164
 1463SOL    HW2 4431   3.121   2.974   2.521 -0.1468  1.1860 -0.0645
 1464SOL     OW 4432   3.374   3.501   2.911 -0.1316  0.3157 -0.3383
 1464SOL    HW1 4433   3.446   3.444   2.885  1.2744  2.2885 -0.9337
 1464SOL    HW2 4434   3.342   3.539   2.829 -1.5418 -0.1400 -0.0295
 1465SOL     OW 4435   4.007   0.982   0.217  0.6827 -0.3053  0.2433
 1465SOL    HW1 4436   3.989   0.967   0.310  1.4705  0.4401  0.5270
 1465SOL    HW2 4437   3.921   0.989   0.176  0.2335  2.2250  1.4061
 1466SOL     OW 4438   3.750   2.483   2.397  0.3029 -0.5465 -0.0676
 1466SOL    HW1 4439   3.831   2.531   2.412 -0.2294  0.1137  0.7976
 1466SOL    HW2 4440   3.742   2.479   2.302 -1.1639  3.8161 -0.3338
 1467SOL     OW 4441   3.384   3.457   2.270  0.0193 -0.0269  0.5717
 1467SOL    HW1 4442   3.449   3.506   2.320  0.9735 -1.3244  0.6720
 1467SOL    HW2 4443   3.422   3.449   2.183 -0.9647  0.9620  0.0351
 1468SOL     OW 4444   2.783   2.699   2.928  0.2062  0.7455 -0.2693
 1468SOL    HW1 4445   2.714   2.714   2.863 -1.1754 -2.4800  0.2363
 1468SOL    HW2 4446   2.769   2.608   2.956  2.9737  0.8848  1.9351
 1469SOL     OW 4447   2.934   3.628   2.534 -0.5325 -0.3085  0.1321
 1469SOL    HW1 4448   2.990   3.566   2.487 -1.5357 -1.5843  0.5631
 1469SOL    HW2 4449   2.987   3.706   2.543 -0.0826 -0.1897 -2.6304
 1470SOL     OW 4450   1.751   0.163   0.054  0.1382  0.1813  0.1891
 1470SOL    HW1 4451   1.703   0.100   0.001  1.0807 -0.0818 -0.3743
 1470SOL    HW2 4452   1.842   0.153   0.026  0.1919  2.5020 -0.6565
 1471SOL     OW 4453   2.334   2.164   2.600  0.0769  0.0099  0.1697
 1471SOL    HW1 4454   2.288   2.163   2.516 -0.1102  1.0271  0.2467
 1471SOL    HW2 4455   2.272   2.203   2.661  0.6688  0.4316  0.5082
 1472SOL     OW 4456   3.190   3.007   1.837  0.3240  0.1761  0.0801
 1472SOL    HW1 4457   3.175   2.929   1.890 -0.6856  0.5849  0.4160
 1472SOL    HW2 4458   3.120   3.008   1.773 -0.3003  1.3356  0.7341
 1473SOL     OW 4459   3.591   3.187   1.515 -0.1412 -0.1352  0.4058
 1473SOL    HW1 4460   3.672   3.187   1.465 -0.3087 -0.8675  0.1234
 1473SOL    HW2 4461   3.588   3.100   1.556 -0.7336 -0.0779  0.4947
 1474SOL     OW 4462   2.771   2.927   2.497  0.2524  0.0769  0.0138
 1474SOL    HW1 4463   2.780   2.922   2.402  0.3854 -1.4424  0.0728
 1474SOL    HW2 4464   2.860   2.913   2.530  0.1937  0.5075  0.3649
 1475SOL     OW 4465   2.900   2.176   2.651  0.8838  0.1366  0.5752
 1475SOL    HW1 4466   2.892   2.142   2.562  0.3950 -0.5407  0.8699
 1475SOL    HW2 4467   2.993   2.195   2.661  1.0876 -0.6335  0.2215
 1476SOL     OW 4468   2.225   3.036   2.574 -0.1018 -0.1818  0.0461
 1476SOL    HW1 4469   2.247   3.008   2.485  0.3401  0.8416 -0.1771
 1476SOL    HW2 4470   2.137   3.001   2.589 -0.6885  0.6606 -1.2527
 1477SOL     OW 4471   2.299   3.251   2.162  0.1322 -0.3405 -1.0365
 1477SOL    HW1 4472   2.376   3.196   2.156  0.5160 -0.0804  0.8377
 1477SOL    HW2 4473   2.227   3.197   2.129  0.8894 -1.0521 -1.5430
 1478SOL     OW 4474   2.278   2.266   1.471 -0.0657  0.5525  0.1722
 1478SOL    HW1 4475   2.298   2.204   1.541 -1.1983  0.4589  0.4465
 1478SOL    HW2 4476   2.193   2.304   1.497  0.1473  1.5074 -0.4717
 1479SOL     OW 4477   1.893   1.920   2.200 -0.1603  0.2780  0.0817
 1479SOL    HW1 4478   1.885   1.833   2.240  1.0604 -0.0173 -0.2987
 1479SOL    HW2 4479   1.804   1.956   2.205 -0.3284 -0.2741  1.8566
 1480SOL     OW 4480   2.820   3.205   2.022 -0.1108 -0.5900  0.1080
 1480SOL    HW1 4481   2.759   3.273   1.992 -0.5430 -1.9289 -2.3761
 1480SOL    HW2 4482   2.775   3.123   2.002  1.2383 -1.6317  1.1551
 1481SOL     OW 4483   3.078   3.489   2.326 -0.3867 -0.1160 -0.2097
 1481SOL    HW1 4484   3.056   3.413   2.380 -0.2520 -0.9868 -1.3475
 1481SOL    HW2 4485   3.173   3.484   2.316 -0.6533 -1.7426 -2.9777
 1482SOL     OW 4486   2.954   2.234   2.215 -0.7461  0.2374 -0.2720
 1482SOL    HW1 4487   3.046   2.247   2.239 -1.5572  2.2149  2.2581
 1482SOL    HW2 4488   2.947   2.269   2.126  0.4423  2.7996  0.5467
 1483SOL     OW 4489   2.690   2.521   2.442 -0.2111  0.0157  0.3252
 1483SOL    HW1 4490   2.618   2.584   2.446  0.3422  0.9012 -1.9070
 1483SOL    HW2 4491   2.687   2.487   2.352  0.9997 -1.3496  0.7537
 1484SOL     OW 4492   2.221   3.356   3.061 -0.4875  0.6371  0.1052
 1484SOL    HW1 4493   2.158   3.301   3.108 -0.5685  0.7308  0.1087
 1484SOL    HW2 4494   2.284   3.295   3.024 -1.0744  0.4571 -0.6435
 1485SOL     OW 4495   2.428   3.083   3.027  0.2587  0.0408  0.2236
 1485SOL    HW1 4496   2.407   3.032   2.949 -0.7056 -2.1367  1.7967
 1485SOL    HW2 4497   2.401   3.027   3.100  2.4586  1.3574  2.1860
 1486SOL     OW 4498   2.774   2.918   1.960 -0.4374  0.3582 -0.1072
 1486SOL    HW1 4499   2.741   2.865   1.888 -0.6567 -0.2827  0.4568
 1486SOL    HW2 4500   2.869   2.904   1.958 -0.5833 -0.9411  0.7019
 1487SOL     OW 4501   3.616   2.981   2.763 -0.4401  0.5076  0.1538
 1487SOL    HW1 4502   3.699   2.935   2.776 -0.9228 -0.9579 -1.5841
 1487SOL    HW2 4503   3.625   3.025   2.679 -0.9920  1.3765  0.5350
 1488SOL     OW 4504   3.973   0.754   0.044  0.1641 -0.4414 -0.0140
 1488SOL    HW1 4505   3.996   0.837   0.086  2.5547 -0.6793 -0.6958
 1488SOL    HW2 4506   3.964   0.775  -0.049  0.5117 -0.8679 -0.1518
 1489SOL     OW 4507   2.160   2.123   2.372 -0.4695 -0.4770 -0.4669
 1489SOL    HW1 4508   2.080   2.134   2.321  0.2745 -0.5797 -1.6986
 1489SOL    HW2 4509   2.208   2.053   2.327  0.6906  0.1494 -0.2431
 1490SOL     OW 4510   2.723   3.028   2.736  0.0148 -0.2363  0.2841
 1490SOL    HW1 4511   2.641   2.994   2.773  0.5397 -1.0548  0.7384
 1490SOL    HW2 4512   2.729   2.986   2.650  0.1391 -0.4923  0.4135
 1491SOL     OW 4513   3.355   6.285   2.955  0.6094 -0.7895 -0.0879
 1491SOL    HW1 4514   3.372   6.198   2.991  2.3979 -1.2652 -1.8684
 1491SOL    HW2 4515   3.282   6.272   2.894  0.3219 -0.8693  0.2733
 1492SOL     OW 4516   3.045   5.969   2.936 -0.4072 -0.4264  0.3524
 1492SOL    HW1 4517   2.972   5.989   2.994  0.0267  1.4902  0.3055
 1492SOL    HW2 4518   3.037   5.875   2.919 -1.8389 -0.5950  1.7096
 1493SOL     OW 4519   2.566   3.534   2.371  0.1832  0.1467  0.2253
 1493SOL    HW1 4520   2.586   3.443   2.347 -0.3870  0.1585 -0.3364
 1493SOL    HW2 4521   2.470   3.537   2.372  0.2043  0.5197  1.1176
 1494SOL     OW 4522   3.049   2.149   1.911 -0.2988  0.2540 -0.1948
 1494SOL    HW1 4523   2.984   2.114   1.849  0.3668 -0.2306 -0.6335
 1494SOL    HW2 4524   3.076   2.073   1.963  0.0957  0.4039 -0.1771
 1495SOL     OW 4525   3.067   2.561   2.678  1.0047 -0.5151 -0.9162
 1495SOL    HW1 4526   3.134   2.546   2.612  2.6135  0.7204  0.3608
 1495SOL    HW2 4527   3.063   2.479   2.727 -1.0031 -1.8675 -3.1067
 1496SOL     OW 4528   3.721   1.921   2.582 -0.3193 -0.2891  0.5187
 1496SOL    HW1 4529   3.697   1.967   2.662 -0.6248  0.1630  0.1714
 1496SOL    HW2 4530   3.798   1.968   2.549 -0.4512 -0.2110  0.3203
 1497SOL     OW 4531   1.988   2.991   2.191 -0.5973  0.2977  0.7929
 1497SOL    HW1 4532   2.014   2.929   2.258 -1.7599  0.7066  1.6471
 1497SOL    HW2 4533   1.901   2.962   2.163 -2.2253  2.7807  2.8614
 1498SOL     OW 4534   2.912   3.555   2.103 -0.3603  0.6389 -0.1947
 1498SOL    HW1 4535   2.967   3.522   2.174 -0.2981  1.1521  0.0007
 1498SOL    HW2 4536   2.854   3.619   2.144 -1.7445 -0.5546 -0.2373
 1499SOL     OW 4537   4.422   6.152   2.986  0.5870  0.3225  0.1401
 1499SOL    HW1 4538   4.404   6.076   3.042 -2.6114 -0.5412 -1.8419
 1499SOL    HW2 4539   4.479   6.118   2.917  2.9205  0.9398  1.6258
 1500SOL     OW 4540   2.248   4.226   0.780  0.2706  0.3043  0.1198
 1500SOL    HW1 4541   2.175   4.167   0.800 -1.2031  2.9697  3.6624
 1500SOL    HW2 4542   2.313   4.206   0.847  0.2684  1.8309  0.5995
 1501SOL     OW 4543   1.918   4.441   0.404  0.1643  0.3902 -0.1841
 1501SOL    HW1 4544   1.955   4.371   0.458 -1.0038 -1.2867 -1.4654
 1501SOL    HW2 4545   1.993   4.477   0.356  0.7248 -0.2104  0.2276
 1502SOL     OW 4546   3.734   4.371   0.434 -0.4841 -0.5606  0.2093
 1502SOL    HW1 4547   3.738   4.353   0.340 -0.0329  1.3014 -0.1789
 1502SOL    HW2 4548   3.823   4.395   0.458 -0.7252 -0.3737  0.9643
 1503SOL     OW 4549   2.612   4.006   1.469 -0.6354 -0.1621  0.1764
 1503SOL    HW1 4550   2.688   4.052   1.506 -0.4174  0.3166 -0.8290
 1503SOL    HW2 4551   2.572   3.962   1.544  1.3939 -1.5490  0.5189
 1504SOL     OW 4552   3.231   4.363   0.224 -0.3682  0.1900  0.3326
 1504SOL    HW1 4553   3.146   4.408   0.223 -1.9435 -2.6007  0.4158
 1504SOL    HW2 4554   3.269   4.387   0.308 -0.8113  1.8484  0.1120
 1505SOL     OW 4555   2.140   4.307   1.087  0.0034  0.0095  0.0597
 1505SOL    HW1 4556   2.157   4.228   1.138  1.2584  0.4557  0.3773
 1505SOL    HW2 4557   2.136   4.276   0.997 -0.7913 -0.5856  0.2857
 1506SOL     OW 4558   2.716   3.855   0.543  0.3053 -0.0352  0.0721
 1506SOL    HW1 4559   2.781   3.921   0.519 -0.9486  1.2144 -0.0921
 1506SOL    HW2 4560   2.729   3.841   0.637  0.4713  0.6232  0.1551
 1507SOL     OW 4561   2.230   3.877   1.848 -0.2314 -0.5384 -0.1370
 1507SOL    HW1 4562   2.283   3.919   1.780  0.0742 -0.1123  0.3610
 1507SOL    HW2 4563   2.250   3.926   1.928  0.4718 -1.8765  0.5472
 1508SOL     OW 4564   3.110   3.709   1.304  0.1227 -0.2160  0.3050
 1508SOL    HW1 4565   3.205   3.722   1.298 -0.0039 -0.0406 -1.7667
 1508SOL    HW2 4566   3.101   3.616   1.324  0.7341 -0.4256 -0.3341
 1509SOL     OW 4567   3.070   4.625   1.998 -0.0886 -0.0757 -0.1294
 1509SOL    HW1 4568   3.080   4.665   1.911  1.4014  0.9086  0.4524
 1509SOL    HW2 4569   3.116   4.542   1.992 -0.8987 -0.5074 -0.5676
 1510SOL     OW 4570   3.242   4.017   0.992  0.2084  0.4709 -0.1245
 1510SOL    HW1 4571   3.172   3.992   0.933  1.3168 -0.2971 -1.1580
 1510SOL    HW2 4572   3.305   4.063   0.936  0.7384  0.7480  0.6850
 1511SOL     OW 4573   2.739   0.415   0.313  0.2369 -0.5980 -0.2721
 1511SOL    HW1 4574   2.652   0.379   0.328  0.4906 -0.8530  0.6751
 1511SOL    HW2 4575   2.724   0.494   0.262 -0.8000  0.6538  1.8214
 1512SOL     OW 4576   2.285   4.540   1.043  0.1325 -0.3507 -0.1674
 1512SOL    HW1 4577   2.277   4.464   1.101 -0.3705 -0.5966 -0.5549
 1512SOL    HW2 4578   2.364   4.522   0.991  0.2641 -0.3949  0.0442
 1513SOL     OW 4579   3.464   4.381   2.053  0.1977  0.9363  0.0870
 1513SOL    HW1 4580   3.527   4.333   1.999 -0.9244  0.0036 -0.4377
 1513SOL    HW2 4581   3.475   4.345   2.141  1.9896  2.4163  0.5134
 1514SOL     OW 4582   2.876   3.855   1.196  0.1083 -0.3864  0.0914
 1514SOL    HW1 4583   2.944   3.811   1.248  0.2121  0.0961  0.3676
 1514SOL    HW2 4584   2.872   3.804   1.115 -0.9655 -1.9542  1.0651
 1515SOL     OW 4585   3.409   4.393   0.860  0.2807 -0.1687 -0.4593
 1515SOL    HW1 4586   3.412   4.479   0.816 -2.2043 -0.8168 -2.1046
 1515SOL    HW2 4587   3.358   4.409   0.940  0.8298  0.1076 -0.1606
 1516SOL     OW 4588   1.920   4.032   1.581  0.2706  0.2011  0.2289
 1516SOL    HW1 4589   1.980   3.959   1.564 -0.2059 -0.1875  0.1732
 1516SOL    HW2 4590   1.843   3.990   1.619 -0.0588  0.6649  0.0773
 1517SOL     OW 4591   3.192   3.837   0.116  0.1802 -0.1290 -0.2498
 1517SOL    HW1 4592   3.205   3.929   0.137 -0.8837 -0.4748  2.4136
 1517SOL    HW2 4593   3.110   3.834   0.066 -0.6775  0.2920  1.0682
 1518SOL     OW 4594   3.178   4.363   1.981  0.3065  0.5025  0.4128
 1518SOL    HW1 4595   3.268   4.335   1.999  0.5111  1.3355  0.7842
 1518SOL    HW2 4596   3.126   4.283   1.987  1.1103 -0.1086 -0.4779
 1519SOL     OW 4597   2.868   3.910   1.816 -0.1293  0.1115 -0.5425
 1519SOL    HW1 4598   2.810   3.848   1.860  1.1332  0.2949  1.5036
 1519SOL    HW2 4599   2.956   3.877   1.832  0.4673  1.2337 -1.3343
 1520SOL     OW 4600   3.184   4.941   2.060  0.3620  0.0141  0.1860
 1520SOL    HW1 4601   3.208   5.014   2.119 -0.5310  0.5136 -0.0553
 1520SOL    HW2 4602   3.197   4.977   1.972  1.2714 -0.5925  0.0524
 1521SOL     OW 4603   2.164   3.951   0.334  0.6358  0.3298  0.0953
 1521SOL    HW1 4604   2.237   3.908   0.380  2.8882  1.1298 -2.4749
 1521SOL    HW2 4605   2.193   4.041   0.322 -1.6334  1.1838  0.5678
 1522SOL     OW 4606   2.927   4.024   0.547  0.2307  0.0238 -0.0086
 1522SOL    HW1 4607   2.867   4.078   0.598  1.5172 -0.7153  2.4024
 1522SOL    HW2 4608   2.960   4.083   0.479 -0.3653  1.5213  0.9514
 1523SOL     OW 4609   1.735   4.174   1.328  0.1005  0.2479  0.1485
 1523SOL    HW1 4610   1.676   4.105   1.358  1.3539 -0.7209  0.4824
 1523SOL    HW2 4611   1.776   4.208   1.407  0.7397  0.1938 -0.1506
 1524SOL     OW 4612   2.559   3.960   1.185  0.2867  0.1170  0.5360
 1524SOL    HW1 4613   2.652   3.961   1.161  0.0990 -0.5360 -0.2624
 1524SOL    HW2 4614   2.558   3.980   1.278  1.3580 -1.6855  0.9635
 1525SOL     OW 4615   3.335   3.840   0.693  0.2645 -0.3502 -0.9402
 1525SOL    HW1 4616   3.253   3.877   0.727  0.6349 -0.3695 -0.0103
 1525SOL    HW2 4617   3.338   3.870   0.602 -0.5404  0.0569 -0.8463
 1526SOL     OW 4618   3.374   4.138   0.783  0.2349 -0.2960  0.2895
 1526SOL    HW1 4619   3.366   4.227   0.816 -2.1297 -0.5077  0.4423
 1526SOL    HW2 4620   3.425   4.146   0.702 -1.4342  1.4555 -0.6446
 1527SOL     OW 4621   2.231   4.286   0.057 -0.1656  0.3924 -0.4365
 1527SOL    HW1 4622   2.179   4.217   0.015  1.3038 -1.9809  1.3784
 1527SOL    HW2 4623   2.287   4.319  -0.013 -0.0014 -1.1960 -1.1102
 1528SOL     OW 4624   2.889   3.727   1.477  0.1258 -0.0554  0.3955
 1528SOL    HW1 4625   2.955   3.710   1.410 -0.6550 -1.3777 -0.0982
 1528SOL    HW2 4626   2.874   3.821   1.474  0.0438 -0.0914 -1.3871
 1529SOL     OW 4627   3.219   4.189   1.217  0.1297 -0.1139  0.0406
 1529SOL    HW1 4628   3.164   4.143   1.280 -2.5719  2.6328 -0.0706
 1529SOL    HW2 4629   3.230   4.128   1.144  1.7575 -2.6541  2.2433
 1530SOL     OW 4630   2.448   4.094   0.919  0.2594 -0.1300 -0.0987
 1530SOL    HW1 4631   2.494   4.032   0.863  0.6703 -1.8359  1.9992
 1530SOL    HW2 4632   2.490   4.085   1.005 -1.1452  1.4557  0.8320
 1531SOL     OW 4633   2.467   3.709   1.510  0.2166  0.0873  0.2068
 1531SOL    HW1 4634   2.470   3.777   1.576  1.2343  0.4465 -0.1826
 1531SOL    HW2 4635   2.395   3.734   1.452  0.1989  0.5009  0.4085
 1532SOL     OW 4636   2.342   3.800   1.149 -0.6152 -0.4063  0.2681
 1532SOL    HW1 4637   2.356   3.705   1.146  0.6869 -0.2355  0.5454
 1532SOL    HW2 4638   2.429   3.837   1.147 -1.1333  0.8242 -0.3869
 1533SOL     OW 4639   2.762   4.209   0.963  0.5698 -0.1226 -0.9035
 1533SOL    HW1 4640   2.826   4.171   1.024 -0.4953 -0.3490  0.0885
 1533SOL    HW2 4641   2.753   4.300   0.991 -0.9338 -0.5788  0.1579
 1534SOL     OW 4642   2.747   3.851   0.801 -0.3055  0.3201 -0.2162
 1534SOL    HW1 4643   2.775   3.783   0.863 -1.5984  1.0137  1.1918
 1534SOL    HW2 4644   2.778   3.933   0.841  3.3736  0.5544 -3.0438
 1535SOL     OW 4645   3.841   3.765   0.422  0.1478  0.0562 -0.2316
 1535SOL    HW1 4646   3.899   3.787   0.349  2.1420 -0.2640  1.1503
 1535SOL    HW2 4647   3.771   3.829   0.417  0.9805  0.9198 -1.5973
 1536SOL     OW 4648   3.732   4.113   0.213  0.6269  0.3677  0.0710
 1536SOL    HW1 4649   3.641   4.119   0.184  0.8012  1.7805 -0.2543
 1536SOL    HW2 4650   3.734   4.036   0.270 -0.8201  0.4475  0.2652
 1537SOL     OW 4651   2.250   4.060   1.204 -0.5655 -0.4925  0.1814
 1537SOL    HW1 4652   2.275   3.969   1.189 -2.2832 -1.5029  2.7020
 1537SOL    HW2 4653   2.161   4.055   1.240 -0.2458  2.0736  1.6270
 1538SOL     OW 4654   2.871   4.337   1.607  0.6728  0.1584  0.6277
 1538SOL    HW1 4655   2.958   4.316   1.640 -0.1327 -1.0792  2.1057
 1538SOL    HW2 4656   2.881   4.421   1.563  2.9407 -0.7148 -0.6831
 1539SOL     OW 4657   2.883   4.139   1.237 -0.6233 -0.3789 -0.0803
 1539SOL    HW1 4658   2.951   4.156   1.302  0.2135 -1.3512 -0.6761
 1539SOL    HW2 4659   2.849   4.053   1.261 -2.1304  0.3606  0.6014
 1540SOL     OW 4660   1.609   4.417   1.248  0.7185  0.2988 -0.0879
 1540SOL    HW1 4661   1.692   4.371   1.238  1.5810  1.9363 -1.1111
 1540SOL    HW2 4662   1.544   4.360   1.207  1.1511 -1.3901  1.4737
 1541SOL     OW 4663   1.860   4.283   1.577 -0.5483 -0.1074  0.3717
 1541SOL    HW1 4664   1.911   4.202   1.580  0.4137  0.4937  1.0565
 1541SOL    HW2 4665   1.820   4.289   1.664 -1.0981 -0.1455  0.1234
 1542SOL     OW 4666   2.703   4.403   0.258  0.0785  0.8886  0.6668
 1542SOL    HW1 4667   2.649   4.468   0.212 -1.0989  0.2674  1.1464
 1542SOL    HW2 4668   2.645   4.366   0.325  0.7760 -0.5646  0.5014
 1543SOL     OW 4669   3.489   4.040   1.403 -0.7291  0.0477  0.3039
 1543SOL    HW1 4670   3.573   4.013   1.440 -1.4412 -0.4048  1.6694
 1543SOL    HW2 4671   3.503   4.131   1.376  0.9333 -0.7774 -1.9174
 1544SOL     OW 4672   3.059   3.932   0.756 -0.0030  0.3935 -0.3419
 1544SOL    HW1 4673   3.026   3.973   0.676  1.3667  0.0986 -1.0822
 1544SOL    HW2 4674   3.020   3.844   0.755 -0.5608  0.6315 -0.2935
 1545SOL     OW 4675   3.597   3.902   0.392  0.0092  0.0895 -0.1978
 1545SOL    HW1 4676   3.580   3.893   0.298 -0.7315 -0.1695 -0.0432
 1545SOL    HW2 4677   3.511   3.910   0.432  0.3326  0.5092  0.4349
 1546SOL     OW 4678   3.596   3.889   0.881  0.1717  0.3578  0.5578
 1546SOL    HW1 4679   3.559   3.802   0.893 -0.5003  0.5249 -0.2141
 1546SOL    HW2 4680   3.544   3.928   0.810  1.3487  0.8769 -0.0548
 1547SOL     OW 4681   2.325   3.751   0.720  0.2540 -0.7668  0.4909
 1547SOL    HW1 4682   2.389   3.709   0.779 -0.3452 -1.8579  0.3834
 1547SOL    HW2 4683   2.251   3.773   0.777  1.2739  1.9091  0.9385
 1548SOL     OW 4684   3.068   4.109   1.441 -0.0320 -0.2865 -0.0994
 1548SOL    HW1 4685   3.000   4.072   1.497 -0.0910  0.3938  0.2925
 1548SOL    HW2 4686   3.147   4.109   1.496 -0.0044  0.0496 -0.1364
 1549SOL     OW 4687   3.566   4.352   1.614  0.2588  0.2681 -0.4823
 1549SOL    HW1 4688   3.486   4.327   1.568  0.2975 -0.9784  0.0806
 1549SOL    HW2 4689   3.611   4.412   1.554 -0.5424  0.0848 -1.2888
 1550SOL     OW 4690   2.635   4.337   1.732 -0.1066 -0.3631  0.1669
 1550SOL    HW1 4691   2.567   4.346   1.665 -0.7711  1.7719  1.0510
 1550SOL    HW2 4692   2.717   4.335   1.682 -0.6044  0.9365 -0.7636
 1551SOL     OW 4693   4.158   6.287   3.020  0.1029  0.2713  0.3437
 1551SOL    HW1 4694   4.231   6.238   2.981  0.1743 -0.5508  1.4666
 1551SOL    HW2 4695   4.079   6.244   2.988  0.1662 -0.6263  1.3494
 1552SOL     OW 4696   2.079   4.239   0.545  0.5455  0.1730  0.2039
 1552SOL    HW1 4697   2.113   4.199   0.465  0.6052 -1.5412  1.0496
 1552SOL    HW2 4698   2.152   4.237   0.606  0.8986  2.6380 -0.0264
 1553SOL     OW 4699   2.839   4.053   1.597 -0.0886 -0.0460 -0.0108
 1553SOL    HW1 4700   2.830   4.004   1.679 -2.1360 -1.3367 -0.9004
 1553SOL    HW2 4701   2.865   4.141   1.623  0.8089 -0.8261  1.8840
 1554SOL     OW 4702   3.282   4.524   0.436  0.0285 -0.2783  0.2019
 1554SOL    HW1 4703   3.249   4.574   0.511  2.5291  0.5339  0.8529
 1554SOL    HW2 4704   3.294   4.590   0.368 -1.3151 -0.8588 -0.6304
 1555SOL     OW 4705   3.618   3.940   1.853 -0.1693  0.2426  0.0462
 1555SOL    HW1 4706   3.682   3.982   1.794  0.4691  0.0935  0.6160
 1555SOL    HW2 4707   3.643   3.970   1.940 -0.1971 -0.6870  0.3876
 1556SOL     OW 4708   3.727   3.907   1.294 -0.0062 -0.3412  0.2202
 1556SOL    HW1 4709   3.764   3.894   1.381  0.5686  0.8230  0.1707
 1556SOL    HW2 4710   3.685   3.824   1.273  1.5751 -1.3344  0.7781
 1557SOL     OW 4711   2.561   4.294   0.464  0.1866  0.3456  0.6455
 1557SOL    HW1 4712   2.596   4.219   0.512 -0.3119  1.1777  2.3789
 1557SOL    HW2 4713   2.526   4.352   0.532 -1.0681  1.3191 -0.7664
 1558SOL     OW 4714   2.403   4.221   1.402  0.1916  0.2211  0.3619
 1558SOL    HW1 4715   2.348   4.181   1.335 -0.4632  2.4627 -0.5393
 1558SOL    HW2 4716   2.476   4.160   1.413  0.5807 -0.0089 -2.7628
 1559SOL     OW 4717   3.351   3.824   1.282  0.2544 -0.3025  0.2257
 1559SOL    HW1 4718   3.412   3.882   1.327  1.1375 -0.4258 -0.7473
 1559SOL    HW2 4719   3.322   3.874   1.206 -0.6993 -0.3338  0.5542
 1560SOL     OW 4720   3.306   4.102   1.615 -0.4589 -0.2390 -0.4941
 1560SOL    HW1 4721   3.387   4.076   1.571  0.1394 -1.3085  1.1569
 1560SOL    HW2 4722   3.297   4.039   1.687 -1.2399  1.5956  1.0804
 1561SOL     OW 4723   3.595   4.572   0.537  0.1316  0.1955  0.5682
 1561SOL    HW1 4724   3.652   4.505   0.500  0.2235  0.4342  0.2684
 1561SOL    HW2 4725   3.550   4.609   0.462 -0.5084 -0.0688  0.8146
 1562SOL     OW 4726   3.351   4.153   0.406  0.1150  0.1787 -0.9433
 1562SOL    HW1 4727   3.297   4.219   0.451  0.0942  1.2880 -2.5110
 1562SOL    HW2 4728   3.438   4.162   0.445 -0.7140 -1.6078  1.5941
 1563SOL     OW 4729   3.940   1.591   0.020  0.6797 -0.2394  0.0262
 1563SOL    HW1 4730   4.003   1.639  -0.034 -0.0272 -0.8452 -1.3816
 1563SOL    HW2 4731   3.991   1.519   0.058  0.9271 -0.5058 -0.8042
 1564SOL     OW 4732   2.085   3.705   1.985 -0.4076  0.2445 -0.0206
 1564SOL    HW1 4733   2.074   3.740   2.073  0.0102  1.2714 -0.3557
 1564SOL    HW2 4734   2.157   3.757   1.948  0.9783 -1.6717 -0.1943
 1565SOL     OW 4735   3.293   3.981   2.179  0.0368 -0.1240 -0.5415
 1565SOL    HW1 4736   3.282   3.985   2.084 -0.7099 -0.2986 -0.4679
 1565SOL    HW2 4737   3.251   3.898   2.205  0.7349 -0.3545 -0.1257
 1566SOL     OW 4738   3.359   4.066   2.645  0.4694  0.3163 -0.6930
 1566SOL    HW1 4739   3.316   4.119   2.578  0.7766  1.3841 -0.0636
 1566SOL    HW2 4740   3.300   4.070   2.720  0.4760 -0.2768 -0.6534
 1567SOL     OW 4741   3.244   3.886   2.942 -0.1981 -0.6320  0.5989
 1567SOL    HW1 4742   3.186   3.813   2.920 -0.3934 -1.0646  2.3816
 1567SOL    HW2 4743   3.202   3.928   3.017  0.4334  0.7152  0.2274
 1568SOL     OW 4744   1.753   4.302   1.835 -0.2784  0.4089  0.1776
 1568SOL    HW1 4745   1.746   4.210   1.858 -0.9639  0.1666 -0.9420
 1568SOL    HW2 4746   1.804   4.341   1.907 -3.7930  0.0927  3.1422
 1569SOL     OW 4747   2.626   4.090   1.856 -0.1781 -0.2060  0.5783
 1569SOL    HW1 4748   2.647   4.177   1.823  0.7370 -0.2558  0.9932
 1569SOL    HW2 4749   2.712   4.047   1.866 -0.5246 -0.7044  1.5840
 1570SOL     OW 4750   3.074   3.669   2.974 -0.8017 -0.6164 -0.4411
 1570SOL    HW1 4751   3.001   3.631   2.926 -0.3150 -1.5199 -0.4832
 1570SOL    HW2 4752   3.114   3.595   3.019 -0.4025 -0.0022  0.2409
 1571SOL     OW 4753   1.940   4.579   2.504 -0.5117 -0.3432  0.6658
 1571SOL    HW1 4754   1.876   4.508   2.503 -0.6934 -0.2500 -2.3254
 1571SOL    HW2 4755   1.889   4.658   2.517 -0.7899 -0.4210  0.0474
 1572SOL     OW 4756   3.117   3.785   2.246 -0.2187 -0.2061 -0.2690
 1572SOL    HW1 4757   3.096   3.696   2.220  0.8978 -0.8631  0.9187
 1572SOL    HW2 4758   3.033   3.823   2.272 -0.5885 -1.2470  0.1144
 1573SOL     OW 4759   2.255   3.509   2.619 -0.1663  0.1576 -0.0857
 1573SOL    HW1 4760   2.284   3.505   2.528  0.5515  0.9982  0.0875
 1573SOL    HW2 4761   2.275   3.599   2.646 -0.8737  0.0808  0.7409
 1574SOL     OW 4762   3.406   4.223   2.279  0.1680  0.4369  0.1111
 1574SOL    HW1 4763   3.353   4.156   2.237 -0.8470  1.4602 -0.3077
 1574SOL    HW2 4764   3.355   4.249   2.356  0.4037  0.9287  0.1052
 1575SOL     OW 4765   3.557   3.595   2.466 -0.0512  0.2913 -0.0382
 1575SOL    HW1 4766   3.566   3.682   2.428 -1.3620  1.1839  1.5696
 1575SOL    HW2 4767   3.645   3.557   2.461 -0.0742  0.3969 -3.6511
 1576SOL     OW 4768   2.396   3.338   1.779 -0.0624  0.2072 -0.8027
 1576SOL    HW1 4769   2.331   3.378   1.836  1.3040 -0.9507  1.7338
 1576SOL    HW2 4770   2.371   3.245   1.775 -0.0725  0.2448 -2.0539
 1577SOL     OW 4771   1.036   2.166   0.101 -1.0486 -0.1928 -0.1732
 1577SOL    HW1 4772   1.101   2.190   0.035 -2.1998 -0.2164 -1.3609
 1577SOL    HW2 4773   1.027   2.244   0.156  0.0356 -0.2255  0.0655
 1578SOL     OW 4774   2.239   3.562   2.350  0.0560  0.2310  0.0219
 1578SOL    HW1 4775   2.206   3.644   2.313 -1.7967 -1.2440 -1.7776
 1578SOL    HW2 4776   2.180   3.495   2.317  0.9200 -1.7591  2.2425
 1579SOL     OW 4777   1.710   3.685   2.083  0.1838 -0.5393 -0.2329
 1579SOL    HW1 4778   1.687   3.633   2.159 -0.1437 -0.6944 -0.4361
 1579SOL    HW2 4779   1.684   3.631   2.008 -0.8846  0.2229 -0.4405
 1580SOL     OW 4780   2.485   4.663   2.096 -0.3046  0.7457  0.0064
 1580SOL    HW1 4781   2.502   4.619   2.013  0.4241  0.5412  0.2517
 1580SOL    HW2 4782   2.391   4.655   2.109 -0.1089 -1.4857  0.4320
 1581SOL     OW 4783   6.129   4.143   2.931  0.6675 -0.2555  0.3804
 1581SOL    HW1 4784   6.189   4.069   2.946  1.1087  0.0792  0.2883
 1581SOL    HW2 4785   6.152   4.175   2.844 -1.5925 -1.9189 -0.9291
 1582SOL     OW 4786   4.297   1.488   0.261 -0.7169 -0.0317  1.0052
 1582SOL    HW1 4787   4.357   1.438   0.207 -0.5175 -0.2682  1.4413
 1582SOL    HW2 4788   4.223   1.430   0.276 -0.4232 -0.2546  1.6256
 1583SOL     OW 4789   2.639   3.305   2.740 -0.3891 -0.2900 -0.1520
 1583SOL    HW1 4790   2.687   3.223   2.744  0.4218  0.2164  0.7800
 1583SOL    HW2 4791   2.560   3.284   2.689 -0.3370 -1.7019  0.3099
 1584SOL     OW 4792   3.218   4.276   2.506  0.1397  0.4422 -0.1696
 1584SOL    HW1 4793   3.244   4.354   2.556 -1.3499 -0.2759  1.8476
 1584SOL    HW2 4794   3.141   4.305   2.457 -0.1897  0.3722  0.2933
 1585SOL     OW 4795   2.697   3.778   1.971  0.0416 -0.1785  0.0089
 1585SOL    HW1 4796   2.633   3.712   1.946 -0.9308  0.5261  0.6001
 1585SOL    HW2 4797   2.725   3.754   2.059  1.6853 -1.2908 -0.7617
 1586SOL     OW 4798   2.658   3.641   2.599 -0.4487 -0.4171  0.4532
 1586SOL    HW1 4799   2.630   3.596   2.520 -0.7351  0.3205  0.1325
 1586SOL    HW2 4800   2.748   3.669   2.581 -0.0586 -1.3408  0.8694
 1587SOL     OW 4801   2.312   3.916   2.533  0.5634 -0.0276 -0.0974
 1587SOL    HW1 4802   2.241   3.964   2.576 -0.5942 -1.4053 -0.3974
 1587SOL    HW2 4803   2.342   3.853   2.599 -1.3179 -2.2493 -1.2357
 1588SOL     OW 4804   3.761   4.084   2.457  0.6407  0.4427  0.3182
 1588SOL    HW1 4805   3.707   4.033   2.397  1.2412 -1.6611  1.4751
 1588SOL    HW2 4806   3.709   4.090   2.537  1.2411  0.2017  0.7357
 1589SOL     OW 4807   3.331   3.967   1.891 -0.1155 -0.4575 -0.2958
 1589SOL    HW1 4808   3.284   3.884   1.886 -0.9447  0.0708 -2.6921
 1589SOL    HW2 4809   3.420   3.946   1.862 -0.1324 -0.6288 -0.2255
 1590SOL     OW 4810   6.309   3.932   2.936 -0.0050 -0.1090  0.0540
 1590SOL    HW1 4811   6.365   3.945   3.013 -0.9936 -1.1610  0.9929
 1590SOL    HW2 4812   6.357   3.972   2.864  2.3141 -1.5962  0.6765
 1591SOL     OW 4813   2.966   4.014   2.659 -0.5394  0.3654 -0.2349
 1591SOL    HW1 4814   2.973   4.107   2.639  0.0273  0.4101  0.1512
 1591SOL    HW2 4815   2.909   4.010   2.736 -3.1694  0.1558 -2.0626
 1592SOL     OW 4816   5.761   3.844   2.684 -0.1205  0.5089 -0.2870
 1592SOL    HW1 4817   5.716   3.785   2.624  1.7539 -1.5487  0.2299
 1592SOL    HW2 4818   5.755   3.802   2.769  0.2524  1.6735  0.3399
 1593SOL     OW 4819   3.117   4.285   1.684 -0.1581  0.0493 -0.4186
 1593SOL    HW1 4820   3.182   4.217   1.673 -0.4018 -0.2212 -0.1961
 1593SOL    HW2 4821   3.157   4.347   1.746 -0.1290 -0.1336 -0.2554
 1594SOL     OW 4822   3.511   3.835   2.854  0.3026  0.6131  0.4584
 1594SOL    HW1 4823   3.508   3.742   2.874  2.0096  0.5821  0.6971
 1594SOL    HW2 4824   3.421   3.865   2.867 -0.4018 -1.0940 -0.1724
 1595SOL     OW 4825   3.591   3.944   2.237  0.2117  0.3092  0.6294
 1595SOL    HW1 4826   3.497   3.956   2.223  0.4119  1.9011  0.4298
 1595SOL    HW2 4827   3.605   3.850   2.231 -1.4602  0.0047  1.2557
 1596SOL     OW 4828   1.140   1.440   0.115  0.1933  0.3329  0.5213
 1596SOL    HW1 4829   1.157   1.404   0.028 -0.3310  2.4545 -0.5131
 1596SOL    HW2 4830   1.088   1.372   0.158 -0.0614 -0.5103 -1.0262
 1597SOL     OW 4831   2.439   4.047   2.314  0.4993 -0.8714 -0.2370
 1597SOL    HW1 4832   2.399   4.117   2.365 -0.0956 -1.2515 -0.1682
 1597SOL    HW2 4833   2.445   3.973   2.375  0.3902 -1.1248 -0.5296
 1598SOL     OW 4834   2.850   3.474   2.777  0.4530 -0.4002 -0.7264
 1598SOL    HW1 4835   2.840   3.531   2.700  0.6843 -0.5624 -0.8785
 1598SOL    HW2 4836   2.771   3.420   2.777 -0.5722  1.0024  0.3445
 1599SOL     OW 4837   1.867   3.830   1.791 -0.0289  0.1026 -0.4681
 1599SOL    HW1 4838   1.949   3.836   1.742  0.4030 -2.1550 -0.1479
 1599SOL    HW2 4839   1.889   3.779   1.869 -1.6238 -0.0452 -0.0740
 1600SOL     OW 4840   1.839   3.470   1.766  0.2655  0.3887 -0.3228
 1600SOL    HW1 4841   1.763   3.521   1.794  0.1785  0.4905 -0.7280
 1600SOL    HW2 4842   1.860   3.414   1.840 -1.7471 -1.4734 -1.0555
 1601SOL     OW 4843   2.914   4.198   2.130  0.8315  0.2602 -0.5484
 1601SOL    HW1 4844   2.835   4.220   2.082  1.0518 -0.7512 -1.4123
 1601SOL    HW2 4845   2.893   4.116   2.175  1.7645 -0.7048 -1.7993
 1602SOL     OW 4846   2.355   4.360   2.402  0.2348  0.0151 -0.4726
 1602SOL    HW1 4847   2.422   4.347   2.469 -0.3584  0.2256  0.1737
 1602SOL    HW2 4848   2.283   4.403   2.447 -2.0751 -3.7848 -0.0548
 1603SOL     OW 4849   3.431   3.441   2.005 -0.3968 -0.0101  0.0384
 1603SOL    HW1 4850   3.482   3.407   1.932  0.5580  0.0435  0.6603
 1603SOL    HW2 4851   3.348   3.392   2.002 -0.1068 -0.4647 -0.6772
 1604SOL     OW 4852   2.877   3.936   2.372 -0.3502  0.6048 -0.5517
 1604SOL    HW1 4853   2.797   3.987   2.355 -1.0201 -0.0643  0.4251
 1604SOL    HW2 4854   2.888   3.941   2.467  0.0822 -0.3046 -0.5437
 1605SOL     OW 4855   3.126   3.810   2.556  0.1813  0.1916  0.0925
 1605SOL    HW1 4856   3.084   3.884   2.599  2.2360  0.4020  1.8926
 1605SOL    HW2 4857   3.182   3.849   2.490 -0.1652  0.1070 -0.2539
 1606SOL     OW 4858   3.746   4.229   1.351  0.0206 -0.2727  0.0037
 1606SOL    HW1 4859   3.772   4.284   1.425 -0.6715 -0.4028  0.3540
 1606SOL    HW2 4860   3.796   4.148   1.362  0.2370 -0.1234  0.0965
 1607SOL     OW 4861   3.584   4.582   1.031 -0.0756 -0.4084  0.6189
 1607SOL    HW1 4862   3.580   4.494   1.069  0.7329 -0.3791  0.7968
 1607SOL    HW2 4863   3.531   4.577   0.952 -0.6843 -0.8388  1.0453
 1608SOL     OW 4864   4.474   1.361   1.000 -0.3120 -0.2277  0.1427
 1608SOL    HW1 4865   4.432   1.446   1.008 -2.0845 -0.9986 -0.5539
 1608SOL    HW2 4866   4.491   1.351   0.907  1.1206 -0.1000  0.3700
 1609SOL     OW 4867   3.787   1.155   1.235 -0.1583 -0.8849 -0.1100
 1609SOL    HW1 4868   3.791   1.141   1.140  1.1933  1.6596 -0.5179
 1609SOL    HW2 4869   3.869   1.118   1.268 -1.1188 -2.7932  0.3158
 1610SOL     OW 4870   4.294   4.834   1.221 -0.2847  0.0367 -0.2266
 1610SOL    HW1 4871   4.248   4.752   1.205  0.3682 -0.1942 -0.9975
 1610SOL    HW2 4872   4.335   4.822   1.307  0.7412 -0.9023 -0.8240
 1611SOL     OW 4873   3.667   1.433   0.280 -0.0702  0.2877  0.0193
 1611SOL    HW1 4874   3.674   1.520   0.242  1.3963 -0.0388 -0.5355
 1611SOL    HW2 4875   3.744   1.425   0.336 -0.8487 -0.2078  1.0678
 1612SOL     OW 4876   4.059   1.321   0.679 -0.4795  0.1908 -0.5560
 1612SOL    HW1 4877   4.031   1.337   0.769  0.1125  0.3365 -0.3959
 1612SOL    HW2 4878   4.112   1.397   0.656  2.6585 -1.5710  0.3179
 1613SOL     OW 4879   3.956   1.084   1.016  0.4679 -0.6147  0.1246
 1613SOL    HW1 4880   4.043   1.061   1.047  0.0338 -1.6100  0.6585
 1613SOL    HW2 4881   3.904   1.004   1.027 -0.4316 -0.1450 -0.4948
 1614SOL     OW 4882   3.707   0.638   0.824 -0.0262 -0.0716  0.3515
 1614SOL    HW1 4883   3.727   0.635   0.918 -2.0225  3.0259  1.0578
 1614SOL    HW2 4884   3.792   0.628   0.781  1.1916  0.0531  2.5450
 1615SOL     OW 4885   3.590   1.309   1.345 -0.4055 -0.5018 -0.2764
 1615SOL    HW1 4886   3.654   1.257   1.296  0.6086 -1.0297  1.5330
 1615SOL    HW2 4887   3.642   1.378   1.387 -1.3208  0.2440 -0.3469
 1616SOL     OW 4888   3.607   0.996   0.939  0.3196  0.1259  0.7043
 1616SOL    HW1 4889   3.541   0.950   0.992  0.1191  0.3251  0.6300
 1616SOL    HW2 4890   3.691   0.965   0.973  0.1854 -0.4097  0.5580
 1617SOL     OW 4891   4.310   4.916   1.508  0.2479  0.4233 -0.2169
 1617SOL    HW1 4892   4.316   5.012   1.508 -0.2611  0.5042  1.8387
 1617SOL    HW2 4893   4.388   4.888   1.557  0.6477 -0.2648 -1.2178
 1618SOL     OW 4894   3.612   4.917   1.129 -0.5243 -0.2598 -0.4482
 1618SOL    HW1 4895   3.543   4.945   1.190 -0.2601  1.4942 -0.8897
 1618SOL    HW2 4896   3.576   4.841   1.084 -0.0700 -2.8562  3.0978
 1619SOL     OW 4897   3.492   1.773   2.044  0.3718 -0.6038  0.1826
 1619SOL    HW1 4898   3.514   1.687   2.082  1.9304  0.4279  1.7706
 1619SOL    HW2 4899   3.417   1.755   1.988 -0.4163 -2.7287  1.7490
 1620SOL     OW 4900   0.322   4.123   0.022 -0.2419 -0.0224 -0.0831
 1620SOL    HW1 4901   0.316   4.215  -0.005  0.2838  0.0806  0.1252
 1620SOL    HW2 4902   0.281   4.121   0.109  0.3186  0.1486  0.1924
 1621SOL     OW 4903   3.947   1.691   0.631 -0.0898  0.2132 -0.0016
 1621SOL    HW1 4904   3.888   1.662   0.700 -1.3862  0.4933 -0.9527
 1621SOL    HW2 4905   3.987   1.771   0.666 -0.7204  0.3533  0.4270
 1622SOL     OW 4906   4.058   1.595   1.585 -0.4328  0.3717  0.3739
 1622SOL    HW1 4907   4.056   1.678   1.538 -0.2256  0.0030 -0.2995
 1622SOL    HW2 4908   3.981   1.598   1.642 -0.4770  0.9884  0.2878
 1623SOL     OW 4909   4.023   4.864   1.544  0.0960  0.5721 -0.6610
 1623SOL    HW1 4910   4.015   4.783   1.594  0.4824 -2.0196 -4.4149
 1623SOL    HW2 4911   4.117   4.881   1.539  0.0647  0.7568 -0.6351
 1624SOL     OW 4912   3.907   2.133   1.506 -0.4136  0.0947  0.2525
 1624SOL    HW1 4913   3.822   2.094   1.484 -0.3537 -0.7813  1.4449
 1624SOL    HW2 4914   3.903   2.148   1.600  0.0595  1.8484  0.0315
 1625SOL     OW 4915   4.163   0.720   0.715  0.2105  0.1613  0.0622
 1625SOL    HW1 4916   4.186   0.718   0.808  0.1931  0.6127  0.0782
 1625SOL    HW2 4917   4.084   0.665   0.709  0.1020  0.2835  0.3445
 1626SOL     OW 4918   4.172   0.174   0.102 -0.1964  0.5207 -0.4230
 1626SOL    HW1 4919   4.251   0.122   0.087 -0.0611  0.1009  1.4340
 1626SOL    HW2 4920   4.203   0.249   0.153 -0.5530  1.9302 -2.2161
 1627SOL     OW 4921   4.465   4.055   0.584 -0.1621  0.1808 -0.1038
 1627SOL    HW1 4922   4.510   3.990   0.638  0.8657  0.7609 -0.2370
 1627SOL    HW2 4923   4.444   4.126   0.644 -0.7786 -0.0304 -0.0711
 1628SOL     OW 4924   3.980   1.361   0.936  0.2939 -0.3059  0.2442
 1628SOL    HW1 4925   3.968   1.268   0.953  0.7020 -0.0073  2.4676
 1628SOL    HW2 4926   3.896   1.401   0.960 -0.0047 -0.1161 -1.0512
 1629SOL     OW 4927   3.645   5.111   1.422  0.3769  0.1378 -0.1601
 1629SOL    HW1 4928   3.650   5.129   1.516  0.6151 -1.0494  0.0745
 1629SOL    HW2 4929   3.586   5.179   1.388 -2.3121 -1.2447  1.3788
 1630SOL     OW 4930   4.173   4.199   0.894  0.3852  0.2721 -0.0178
 1630SOL    HW1 4931   4.160   4.185   0.988 -0.8056 -1.5834 -0.4217
 1630SOL    HW2 4932   4.094   4.247   0.867  0.7849  0.9144 -0.0818
 1631SOL     OW 4933   3.854   5.205   1.932 -0.1459  0.7387  0.2702
 1631SOL    HW1 4934   3.924   5.268   1.913 -0.4039  0.9272 -0.0749
 1631SOL    HW2 4935   3.872   5.174   2.020  0.3421  0.8290  0.2016
 1632SOL     OW 4936   3.785   1.526   1.432 -0.6315  0.5705  0.0239
 1632SOL    HW1 4937   3.837   1.575   1.369  1.4170  2.1705  2.7493
 1632SOL    HW2 4938   3.759   1.591   1.498 -2.3954 -1.0612  1.0608
 1633SOL     OW 4939   3.795   0.872   1.123  0.1690 -0.2270  0.3816
 1633SOL    HW1 4940   3.718   0.823   1.151  0.7836 -1.6369 -0.3053
 1633SOL    HW2 4941   3.852   0.875   1.200 -0.6534  1.0406  0.9666
 1634SOL     OW 4942   4.186   5.094   1.308  0.0154  0.0880 -0.3832
 1634SOL    HW1 4943   4.251   5.164   1.310 -0.3428  0.4128  0.5364
 1634SOL    HW2 4944   4.237   5.013   1.305  0.4816  0.3390  0.3802
 1635SOL     OW 4945   4.150   1.514   1.116  0.4939 -0.2115 -0.9000
 1635SOL    HW1 4946   4.065   1.527   1.158  1.2681  1.5254  0.2330
 1635SOL    HW2 4947   4.131   1.461   1.039 -1.3499 -1.3307  0.2722
 1636SOL     OW 4948   4.219   5.123   2.110  0.0389  0.2101 -0.2685
 1636SOL    HW1 4949   4.289   5.181   2.079 -1.2652  1.8903 -0.1797
 1636SOL    HW2 4950   4.185   5.166   2.188  1.1410 -2.3506  1.7777
 1637SOL     OW 4951   4.259   4.499   1.475  0.3166  0.0657  0.0306
 1637SOL    HW1 4952   4.182   4.523   1.527  0.0112  1.2016 -0.8844
 1637SOL    HW2 4953   4.318   4.574   1.484  0.6538 -0.1265 -0.5010
 1638SOL     OW 4954   4.245   1.125   1.019 -0.6237  0.0872 -0.2433
 1638SOL    HW1 4955   4.265   1.219   1.027  0.5506 -0.0596 -1.1058
 1638SOL    HW2 4956   4.274   1.102   0.931  0.3852 -1.3709  0.4223
 1639SOL     OW 4957   3.896   4.479   1.254 -0.3127 -0.8614 -0.0433
 1639SOL    HW1 4958   3.848   4.405   1.217  1.8585 -2.2663 -0.2254
 1639SOL    HW2 4959   3.838   4.513   1.321 -0.9981 -3.4119  0.7909
 1640SOL     OW 4960   3.861   1.616   1.181  0.0477  0.0853  0.3417
 1640SOL    HW1 4961   3.780   1.584   1.142 -0.1868 -0.3209  1.1290
 1640SOL    HW2 4962   3.895   1.679   1.118 -0.3619 -0.4799 -0.4559
 1641SOL     OW 4963   4.553   4.773   0.659  0.0830  0.5263 -0.0807
 1641SOL    HW1 4964   4.546   4.793   0.752  0.0154  1.1120 -0.2107
 1641SOL    HW2 4965   4.513   4.686   0.650  0.8745  0.0847  0.5690
 1642SOL     OW 4966   4.076   5.326   1.859  0.3351 -0.4696  0.1721
 1642SOL    HW1 4967   4.140   5.360   1.921  0.9033 -0.0553 -0.6248
 1642SOL    HW2 4968   4.128   5.285   1.791 -0.0841  2.0139 -1.7790
 1643SOL     OW 4969   3.938   5.339   1.607  0.0672 -0.1326  0.2865
 1643SOL    HW1 4970   3.886   5.413   1.577 -0.1013 -0.8094 -1.1798
 1643SOL    HW2 4971   3.938   5.347   1.703 -0.6928  1.2336  0.2013
 1644SOL     OW 4972   4.101   4.672   1.118  0.2043 -0.2795 -0.2585
 1644SOL    HW1 4973   4.027   4.670   1.058  0.5283  0.9533 -0.7472
 1644SOL    HW2 4974   4.080   4.607   1.185 -1.2739 -0.0202 -0.4328
 1645SOL     OW 4975   3.870   2.063   0.690 -0.3520  0.1029  0.1456
 1645SOL    HW1 4976   3.955   2.021   0.678 -0.4114  0.1471 -0.4368
 1645SOL    HW2 4977   3.891   2.154   0.713 -0.2292 -0.1592  1.1275
 1646SOL     OW 4978   3.845   4.846   1.269 -0.4171  0.3519  0.0498
 1646SOL    HW1 4979   3.777   4.863   1.204 -0.1086 -0.0927 -0.4026
 1646SOL    HW2 4980   3.922   4.821   1.217 -0.5635 -1.4264  0.6012
 1647SOL     OW 4981   3.836   5.066   1.677 -0.2098 -0.2277  0.0486
 1647SOL    HW1 4982   3.783   5.041   1.752 -0.8686  0.8864 -0.0147
 1647SOL    HW2 4983   3.914   5.108   1.714 -1.6050  2.4718  0.1774
 1648SOL     OW 4984   4.534   0.544   0.375  0.6840  0.0860  0.3237
 1648SOL    HW1 4985   4.534   0.499   0.460  0.3007  0.2341  0.4050
 1648SOL    HW2 4986   4.625   0.542   0.347  1.3074  2.2463  1.9225
 1649SOL     OW 4987   3.672   1.842   1.825 -0.0560 -0.4440  0.5751
 1649SOL    HW1 4988   3.611   1.843   1.899  0.3224  1.6977  0.9004
 1649SOL    HW2 4989   3.740   1.905   1.848 -1.2784  2.3399 -2.6408
 1650SOL     OW 4990   4.233   0.344   0.439  0.0739 -0.1021  0.2857
 1650SOL    HW1 4991   4.278   0.309   0.515 -0.6762  0.1856  0.8794
 1650SOL    HW2 4992   4.298   0.397   0.394  1.2123 -2.1018 -0.5695
 1651SOL     OW 4993   3.492   0.993   1.359  0.2731  0.3809  0.1868
 1651SOL    HW1 4994   3.550   1.067   1.374 -0.8303  0.9017  2.2745
 1651SOL    HW2 4995   3.405   1.024   1.386 -0.2522 -1.5576  0.9387
 1652SOL     OW 4996   3.702   1.461   0.971 -0.1420 -0.2110 -0.1804
 1652SOL    HW1 4997   3.639   1.391   0.955  0.6260 -0.4974 -2.2637
 1652SOL    HW2 4998   3.699   1.515   0.892  0.4191  1.2225  0.7270
 1653SOL     OW 4999   3.767   1.648   2.196 -0.2565 -0.0125 -0.1909
 1653SOL    HW1 5000   3.714   1.688   2.265 -2.5295 -2.8143 -0.1295
 1653SOL    HW2 5001   3.703   1.603   2.140  1.8261 -0.8277 -2.0649
 1654SOL     OW 5002   3.945   4.347   0.869 -0.1826  0.2656  0.1468
 1654SOL    HW1 5003   3.861   4.306   0.893 -0.3378 -0.4628 -1.4981
 1654SOL    HW2 5004   3.935   4.438   0.895 -1.7967  0.3701 -0.6429
 1655SOL     OW 5005   3.838   1.267   1.568 -0.1274 -0.3760 -0.6481
 1655SOL    HW1 5006   3.928   1.292   1.588 -0.0071 -0.9280 -0.4785
 1655SOL    HW2 5007   3.795   1.348   1.541  0.4827 -0.1538 -0.9554
 1656SOL     OW 5008   3.907   1.444   0.452 -0.0820 -0.2977  0.0058
 1656SOL    HW1 5009   3.978   1.400   0.499 -1.8405 -0.7488  2.4136
 1656SOL    HW2 5010   3.914   1.536   0.477 -0.2211 -0.3050  0.0736
 1657SOL     OW 5011   3.704   5.605   1.825  0.6189  0.1197 -0.1467
 1657SOL    HW1 5012   3.709   5.537   1.758  2.4276  0.3646 -0.3093
 1657SOL    HW2 5013   3.752   5.679   1.787 -1.4167  1.5747 -0.0355
 1658SOL     OW 5014   3.697   1.740   1.580 -0.9078 -0.4916 -0.3296
 1658SOL    HW1 5015   3.678   1.815   1.525 -0.2467  0.9957  1.3828
 1658SOL    HW2 5016   3.688   1.772   1.670  0.4358 -2.1545  0.4728
 1659SOL     OW 5017   4.409   1.115   0.360 -0.3221  0.2279 -0.3237
 1659SOL    HW1 5018   4.401   1.021   0.374 -1.0419 -0.0736 -2.3495
 1659SOL    HW2 5019   4.439   1.123   0.269 -0.9135  1.9561 -0.4056
 1660SOL     OW 5020   3.835   1.531   1.760 -0.1193 -0.2183  0.0754
 1660SOL    HW1 5021   3.763   1.581   1.799  0.8534  1.7671 -0.5732
 1660SOL    HW2 5022   3.893   1.513   1.834  0.0147  0.5019  0.1523
 1661SOL     OW 5023   3.807   1.195   0.546  0.0152  0.2497  0.4317
 1661SOL    HW1 5024   3.714   1.215   0.537  0.0430  0.1927  0.0072
 1661SOL    HW2 5025   3.838   1.251   0.617 -0.2134  0.6883  0.1843
 1662SOL     OW 5026   4.093   1.330   1.600 -0.0826 -0.4452 -0.9161
 1662SOL    HW1 5027   4.157   1.301   1.535  1.3869  2.6667 -1.0360
 1662SOL    HW2 5028   4.089   1.425   1.589 -3.1969 -0.2746  0.5557
 1663SOL     OW 5029   3.952   0.572   0.652  0.1086 -0.3814 -0.3777
 1663SOL    HW1 5030   3.921   0.482   0.656  0.5125 -0.5360 -0.7146
 1663SOL    HW2 5031   3.921   0.605   0.568 -1.6301  0.3926  0.5051
 1664SOL     OW 5032   3.948   5.186   1.376 -0.0572 -0.4012 -0.3878
 1664SOL    HW1 5033   3.955   5.262   1.435  0.6671 -1.0255  0.3693
 1664SOL    HW2 5034   4.039   5.166   1.354 -0.2634 -0.8945 -0.7838
 1665SOL     OW 5035   4.328   1.093   0.754  0.4422  0.2065 -0.7783
 1665SOL    HW1 5036   4.377   1.172   0.731  0.4935  0.1129 -0.9896
 1665SOL    HW2 5037   4.260   1.087   0.687  1.5924 -0.9720 -1.8948
 1666SOL     OW 5038   4.391   4.483   1.881  0.2700  0.5864  0.2949
 1666SOL    HW1 5039   4.298   4.495   1.861  0.3365  1.6006  0.5283
 1666SOL    HW2 5040   4.406   4.390   1.868 -0.2999  0.7370 -1.7530
 1667SOL     OW 5041   1.632   1.983  -0.030 -0.3292  0.3938 -0.5435
 1667SOL    HW1 5042   1.633   1.958  -0.122  0.7704 -0.9286 -0.2086
 1667SOL    HW2 5043   1.723   2.007  -0.011 -0.0072 -1.6126  0.7323
 1668SOL     OW 5044   3.300   4.970   2.470 -0.2975 -0.1337 -0.1309
 1668SOL    HW1 5045   3.237   4.947   2.539  0.7808 -2.2361  0.2502
 1668SOL    HW2 5046   3.355   4.892   2.461 -0.6746 -0.1266 -3.7334
 1669SOL     OW 5047   4.596   5.709   2.732  0.4751 -0.0887  0.3684
 1669SOL    HW1 5048   4.681   5.716   2.775  0.6250 -1.1266  0.2701
 1669SOL    HW2 5049   4.602   5.629   2.679 -0.3443  0.1634 -0.1284
 1670SOL     OW 5050   4.124   5.732   2.929 -0.5034  0.5275  0.5676
 1670SOL    HW1 5051   4.137   5.708   3.020 -1.9028 -0.5221  0.5284
 1670SOL    HW2 5052   4.137   5.651   2.880 -1.5157  0.6761  0.0194
 1671SOL     OW 5053   3.995   2.253   2.343 -0.1779 -0.1611 -0.1491
 1671SOL    HW1 5054   3.985   2.200   2.422  0.2187 -1.1150 -0.7083
 1671SOL    HW2 5055   3.906   2.265   2.310 -0.2675 -0.6558 -0.1073
 1672SOL     OW 5056   3.617   1.753   2.392 -0.1952  0.4813  0.4814
 1672SOL    HW1 5057   3.618   1.832   2.446 -2.7749  0.0697  1.2606
 1672SOL    HW2 5058   3.588   1.684   2.450 -1.4936 -0.2998 -1.0253
 1673SOL     OW 5059   1.598   3.275   0.057 -0.2207  0.4176 -0.8495
 1673SOL    HW1 5060   1.628   3.363   0.036 -0.7092  0.4171 -1.5909
 1673SOL    HW2 5061   1.535   3.254  -0.012 -0.1015 -0.5159 -0.6830
 1674SOL     OW 5062   4.009   5.081   2.454 -0.3426  0.4133  0.8189
 1674SOL    HW1 5063   3.930   5.034   2.480  0.2812 -1.8631 -1.1186
 1674SOL    HW2 5064   4.063   5.082   2.533 -0.6158 -1.7039  1.0941
 1675SOL     OW 5065   3.311   5.505   2.190  0.2365  0.3837  0.0007
 1675SOL    HW1 5066   3.406   5.497   2.201  0.3159  0.9737 -0.2344
 1675SOL    HW2 5067   3.289   5.590   2.228 -0.5750 -0.7742  2.3582
 1676SOL     OW 5068   4.478   4.978   1.939  0.8257 -0.0347 -0.0089
 1676SOL    HW1 5069   4.539   5.043   1.973  2.5504 -0.2296 -2.5058
 1676SOL    HW2 5070   4.415   4.964   2.010  0.9987  3.5410  0.9926
 1677SOL     OW 5071   4.311   5.721   2.451 -0.7181 -0.3308 -0.0604
 1677SOL    HW1 5072   4.309   5.799   2.507 -0.1981  0.5638 -1.2472
 1677SOL    HW2 5073   4.374   5.742   2.383 -0.9835 -1.5889 -0.7275
 1678SOL     OW 5074   5.176   5.314   1.536  0.0236  0.8603 -0.0814
 1678SOL    HW1 5075   5.087   5.304   1.502  0.4752 -1.5525 -0.7811
 1678SOL    HW2 5076   5.232   5.310   1.458  0.8688 -0.7276  0.5559
 1679SOL     OW 5077   4.537   2.193   2.908 -0.1804  0.0216 -0.2666
 1679SOL    HW1 5078   4.482   2.271   2.912 -0.9456 -0.4732 -0.8093
 1679SOL    HW2 5079   4.578   2.196   2.822  0.7406  0.4419  0.1752
 1680SOL     OW 5080   3.885   5.383   2.280 -0.0838 -0.1769  0.4283
 1680SOL    HW1 5081   3.954   5.447   2.263  0.2436 -0.8700 -1.0918
 1680SOL    HW2 5082   3.808   5.417   2.235 -0.4452  0.0696  1.2207
 1681SOL     OW 5083   4.388   4.900   2.215  0.1075 -0.6748  0.0164
 1681SOL    HW1 5084   4.351   4.813   2.208  1.4318 -1.1499 -2.6748
 1681SOL    HW2 5085   4.320   4.959   2.182 -0.0085 -0.9635 -0.2588
 1682SOL     OW 5086   4.591   4.090   2.202 -0.2097  0.0128  0.1997
 1682SOL    HW1 5087   4.685   4.081   2.187 -0.3018 -0.1226 -0.2833
 1682SOL    HW2 5088   4.585   4.116   2.295  0.3408  0.7349  0.0507
 1683SOL     OW 5089   3.943   4.222   2.246 -0.2704  0.1933 -0.0676
 1683SOL    HW1 5090   3.867   4.194   2.298 -0.3684  1.2437  0.3865
 1683SOL    HW2 5091   3.975   4.300   2.291  0.1373  0.6655 -1.1381
 1684SOL     OW 5092   4.101   4.254   1.993  0.4117 -0.0711 -0.9190
 1684SOL    HW1 5093   4.191   4.230   2.015  0.0162  0.0574  0.9562
 1684SOL    HW2 5094   4.054   4.253   2.076 -0.9425  1.5851 -1.6008
 1685SOL     OW 5095   4.426   5.478   2.913 -0.8104 -0.6169 -0.4453
 1685SOL    HW1 5096   4.496   5.542   2.924 -1.1967 -0.3560  0.5528
 1685SOL    HW2 5097   4.412   5.475   2.818  1.0465 -1.2218 -0.7479
 1686SOL     OW 5098   4.084   5.448   2.910  0.6982 -0.2420  0.4905
 1686SOL    HW1 5099   4.132   5.467   2.830 -0.9727  0.1518 -0.4596
 1686SOL    HW2 5100   4.016   5.385   2.883 -2.1996  2.5332  0.7089
 1687SOL     OW 5101   1.889   3.788   0.191 -0.5096  0.0195 -0.2115
 1687SOL    HW1 5102   1.903   3.880   0.170  1.1373  0.1150  1.0997
 1687SOL    HW2 5103   1.831   3.790   0.267  0.7100  0.0687  0.7440
 1688SOL     OW 5104   4.239   5.516   2.688  0.2140  0.4694 -0.6233
 1688SOL    HW1 5105   4.249   5.432   2.644  2.4666  0.0535  0.5627
 1688SOL    HW2 5106   4.299   5.575   2.642  1.0958  0.5444  0.5933
 1689SOL     OW 5107   4.612   4.823   3.002 -0.1152 -0.1129  0.7574
 1689SOL    HW1 5108   4.526   4.861   3.017 -0.0174  0.8427 -0.8842
 1689SOL    HW2 5109   4.604   4.779   2.917  1.4242  1.3678 -0.2157
 1690SOL     OW 5110   1.950   3.892   0.563 -0.5258 -0.3738 -0.6121
 1690SOL    HW1 5111   1.951   3.956   0.634 -2.2334 -2.6220  1.6070
 1690SOL    HW2 5112   2.043   3.883   0.538  0.2894 -0.1959  2.0527
 1691SOL     OW 5113   2.317   3.474   0.113  0.0324  0.5464  0.4447
 1691SOL    HW1 5114   2.223   3.490   0.106 -0.2074 -1.1122 -0.4055
 1691SOL    HW2 5115   2.356   3.529   0.045  0.0637  3.7007  2.7731
 1692SOL     OW 5116   4.083   4.386   2.669  0.0464  0.2187 -0.2708
 1692SOL    HW1 5117   4.013   4.364   2.608  0.8346 -1.2497 -0.7025
 1692SOL    HW2 5118   4.160   4.401   2.614  1.5359 -3.9673  0.2813
 1693SOL     OW 5119   3.875   5.241   2.831  0.1811  0.3195  0.2071
 1693SOL    HW1 5120   3.852   5.165   2.884 -0.5391 -1.3658 -2.3439
 1693SOL    HW2 5121   3.795   5.265   2.786  0.7299  1.7728 -0.0552
 1694SOL     OW 5122   1.735   2.340   0.230  0.1992 -0.0723 -0.5320
 1694SOL    HW1 5123   1.758   2.423   0.271 -1.0119 -0.5136  1.1864
 1694SOL    HW2 5124   1.813   2.315   0.179  0.7992  1.7838 -0.5845
 1695SOL     OW 5125   3.546   1.475   2.096 -0.2963 -0.5074 -0.6456
 1695SOL    HW1 5126   3.526   1.459   2.004 -1.0734 -1.5694 -0.3037
 1695SOL    HW2 5127   3.467   1.449   2.143  0.3158 -0.5707  0.3755
 1696SOL     OW 5128   4.058   5.942   2.797 -0.3330 -0.2312  0.2002
 1696SOL    HW1 5129   4.033   5.901   2.715 -0.3357  2.0892 -1.0224
 1696SOL    HW2 5130   4.066   5.869   2.859  0.4796 -2.1405 -2.0193
 1697SOL     OW 5131   1.462   2.446   0.246 -0.2414  0.4908 -0.7035
 1697SOL    HW1 5132   1.407   2.374   0.214  1.3969 -0.0486 -2.4513
 1697SOL    HW2 5133   1.552   2.415   0.234  0.5323  1.2684  2.2716
 1698SOL     OW 5134   4.766   4.840   2.082  0.0935 -0.9084 -0.5753
 1698SOL    HW1 5135   4.692   4.805   2.131  0.6041 -1.0793  0.0946
 1698SOL    HW2 5136   4.797   4.767   2.028 -0.2131 -0.8403 -0.8440
 1699SOL     OW 5137   4.470   5.143   1.640  0.7192 -0.3287 -0.4385
 1699SOL    HW1 5138   4.472   5.109   1.729  1.0927 -0.6751 -0.5755
 1699SOL    HW2 5139   4.388   5.192   1.635  0.4919 -0.6590 -0.0350
 1700SOL     OW 5140   3.767   4.974   2.542 -0.5600 -0.0035 -0.0791
 1700SOL    HW1 5141   3.694   5.016   2.497 -0.7592  0.7400  0.8923
 1700SOL    HW2 5142   3.740   4.971   2.634  0.6094  0.2707  0.2959
 1701SOL     OW 5143   3.951   5.725   2.186 -0.3943 -0.3100 -0.5261
 1701SOL    HW1 5144   3.875   5.717   2.128 -0.6893 -1.2312 -0.0321
 1701SOL    HW2 5145   3.956   5.819   2.205  0.5352  0.2486 -3.1027
 1702SOL     OW 5146   4.277   5.755   2.117 -0.0499  0.1568  0.0267
 1702SOL    HW1 5147   4.336   5.719   2.183 -0.5426 -0.2703  0.2373
 1702SOL    HW2 5148   4.332   5.814   2.066  0.8712 -1.1242 -0.5339
 1703SOL     OW 5149   2.189   2.425   0.010 -0.1013  0.1953  0.0186
 1703SOL    HW1 5150   2.284   2.412   0.006 -0.0325  0.8672 -1.6066
 1703SOL    HW2 5151   2.177   2.497   0.072  0.4832  0.3748 -0.0742
 1704SOL     OW 5152   3.832   4.589   1.977 -0.1302 -0.2787 -0.0837
 1704SOL    HW1 5153   3.837   4.574   1.883  0.9617  1.0179 -0.2685
 1704SOL    HW2 5154   3.785   4.672   1.986 -1.3082 -0.9951  0.5952
 1705SOL     OW 5155   4.080   4.500   1.901 -0.2977  0.4959 -0.0282
 1705SOL    HW1 5156   4.002   4.527   1.948  0.5387  0.9819  1.1376
 1705SOL    HW2 5157   4.082   4.405   1.910 -0.0544  0.5938  1.1246
 1706SOL     OW 5158   3.788   5.626   2.745 -0.1203  0.0055  0.2968
 1706SOL    HW1 5159   3.698   5.636   2.713 -0.1125  0.7016  0.4677
 1706SOL    HW2 5160   3.781   5.633   2.840 -0.0348 -1.2045  0.4072
 1707SOL     OW 5161   4.034   4.759   2.546  0.1943  0.0815  0.5049
 1707SOL    HW1 5162   3.987   4.748   2.463  0.9528  2.5104 -0.3162
 1707SOL    HW2 5163   4.101   4.691   2.544 -0.3434 -0.4646 -0.4423
 1708SOL     OW 5164   3.889   4.996   3.031 -0.0535  0.1930 -0.0903
 1708SOL    HW1 5165   3.855   4.920   3.076 -0.1346  0.0732 -0.3518
 1708SOL    HW2 5166   3.975   4.968   2.998  0.5446  0.6544  1.0146
 1709SOL     OW 5167   3.678   5.458   2.117 -0.4573 -0.0038 -0.0424
 1709SOL    HW1 5168   3.640   5.511   2.047  1.5613 -1.8220 -2.6891
 1709SOL    HW2 5169   3.647   5.369   2.101  1.4588 -0.7809  0.2113
 1710SOL     OW 5170   4.303   1.986   1.138  0.2795 -0.5746 -0.2288
 1710SOL    HW1 5171   4.325   2.069   1.178 -1.2042 -0.0734 -0.4109
 1710SOL    HW2 5172   4.282   1.928   1.212 -2.7134  0.4208 -0.1720
 1711SOL     OW 5173   3.717   2.304   0.835  0.0891  0.1868  0.7310
 1711SOL    HW1 5174   3.712   2.209   0.822  2.5029  0.1635 -0.7177
 1711SOL    HW2 5175   3.704   2.315   0.929 -0.4212 -1.5600  0.9121
 1712SOL     OW 5176   4.509   2.673   0.866  0.6137  0.4803  0.0136
 1712SOL    HW1 5177   4.419   2.667   0.898  1.0321  1.5803  1.5473
 1712SOL    HW2 5178   4.562   2.636   0.937  1.3318 -1.1591 -1.3234
 1713SOL     OW 5179   4.041   3.236   1.399 -0.2682 -0.3275 -0.4666
 1713SOL    HW1 5180   4.056   3.163   1.339  1.0564  0.2347 -0.8566
 1713SOL    HW2 5181   4.002   3.305   1.345  1.7363  0.5024 -0.9564
 1714SOL     OW 5182   4.512   2.293   1.514  0.0658  0.1438  0.1193
 1714SOL    HW1 5183   4.559   2.286   1.431  0.5335  0.4397  0.3565
 1714SOL    HW2 5184   4.446   2.361   1.498 -1.2596 -1.2586 -0.6639
 1715SOL     OW 5185   4.086   3.309   0.649  0.6107 -0.0852  0.0955
 1715SOL    HW1 5186   4.044   3.387   0.685 -1.0496 -0.3227 -1.2144
 1715SOL    HW2 5187   4.054   3.304   0.559  1.3841 -1.7952 -0.1245
 1716SOL     OW 5188   4.099   2.828   0.119 -0.1868  0.0599 -0.0964
 1716SOL    HW1 5189   4.062   2.760   0.063 -1.9235  0.7184  0.1973
 1716SOL    HW2 5190   4.190   2.800   0.133 -0.7815 -2.0979 -0.1443
 1717SOL     OW 5191   3.923   2.904   0.994 -0.6183  0.7891  0.1720
 1717SOL    HW1 5192   3.846   2.918   1.050 -1.2314 -1.3639 -0.0483
 1717SOL    HW2 5193   3.903   2.949   0.913 -0.3155  2.7854  1.1496
 1718SOL     OW 5194   4.024   2.662   0.903  0.2478  0.4010  0.2547
 1718SOL    HW1 5195   3.995   2.747   0.936  0.5484  1.0710 -1.1490
 1718SOL    HW2 5196   3.975   2.649   0.822 -0.3074 -1.1006  0.7964
 1719SOL     OW 5197   3.840   2.547   1.840  0.0699  0.1651  1.1580
 1719SOL    HW1 5198   3.781   2.521   1.911 -1.9955  1.5176  0.0607
 1719SOL    HW2 5199   3.895   2.615   1.878  0.3505 -0.5008  1.9710
 1720SOL     OW 5200   4.029   3.074   1.606  0.9963 -0.2490 -0.2030
 1720SOL    HW1 5201   4.016   2.994   1.555  0.8833 -2.2196  2.6639
 1720SOL    HW2 5202   4.033   3.144   1.541  1.4345 -2.5937 -2.8907
 1721SOL     OW 5203   4.441   2.125   1.979 -0.1537 -0.4291 -0.0607
 1721SOL    HW1 5204   4.498   2.051   1.998 -1.2964 -1.9190 -2.0055
 1721SOL    HW2 5205   4.361   2.086   1.943 -1.6305  1.6695  0.6914
 1722SOL     OW 5206   3.964   2.628   1.187  0.2850  0.5669 -0.0454
 1722SOL    HW1 5207   3.944   2.699   1.248  0.3538 -0.3599  1.0979
 1722SOL    HW2 5208   4.006   2.671   1.113 -0.9210  1.8809 -0.0010
 1723SOL     OW 5209   3.789   3.589   1.878 -0.0469  0.1941  0.6028
 1723SOL    HW1 5210   3.814   3.666   1.929 -1.5501  0.0831  1.5740
 1723SOL    HW2 5211   3.811   3.611   1.788  0.6799  1.2556  1.0221
 1724SOL     OW 5212   0.321   1.796  -0.010  0.0797 -0.3562 -0.2252
 1724SOL    HW1 5213   0.298   1.710  -0.046 -0.4805 -0.7664  1.0701
 1724SOL    HW2 5214   0.240   1.828   0.029  0.3938  0.5837 -0.3239
 1725SOL     OW 5215   4.483   2.021   0.688  0.2437 -0.0444 -0.3795
 1725SOL    HW1 5216   4.521   1.970   0.759 -1.7708 -0.7373  0.2711
 1725SOL    HW2 5217   4.427   2.085   0.731 -0.0670  0.3370 -1.3121
 1726SOL     OW 5218   4.080   3.461   1.041 -0.3088 -0.6230  0.2938
 1726SOL    HW1 5219   4.071   3.511   0.960  0.6214 -0.1159  0.4860
 1726SOL    HW2 5220   4.067   3.526   1.110 -0.8604 -1.0052  0.5525
 1727SOL     OW 5221   4.440   2.968   1.740  0.1514 -0.2402 -0.4326
 1727SOL    HW1 5222   4.399   3.042   1.786  0.0954 -0.8871  0.5952
 1727SOL    HW2 5223   4.500   2.930   1.804 -1.9127 -2.8433  0.1346
 1728SOL     OW 5224   3.570   2.122   1.699  0.3817 -0.7363 -0.3899
 1728SOL    HW1 5225   3.502   2.069   1.741 -1.3392  1.4442 -0.1888
 1728SOL    HW2 5226   3.642   2.123   1.762 -0.9221 -0.0681  1.1801
 1729SOL     OW 5227   4.239   3.631   1.501 -0.6361 -0.3087 -0.4719
 1729SOL    HW1 5228   4.275   3.546   1.475  0.0970  0.3921 -1.8895
 1729SOL    HW2 5229   4.172   3.649   1.435 -0.2550  0.5512 -0.6332
 1730SOL     OW 5230   4.103   2.302   0.416  0.0921 -0.1133 -0.3507
 1730SOL    HW1 5231   4.194   2.330   0.412  0.1590 -0.1895  0.6000
 1730SOL    HW2 5232   4.073   2.327   0.503 -0.8299 -0.0075 -0.6792
 1731SOL     OW 5233   3.948   1.790   0.366 -0.0161  0.4771  0.0832
 1731SOL    HW1 5234   3.936   1.745   0.450 -3.2808  0.3289 -0.3358
 1731SOL    HW2 5235   3.910   1.877   0.379  0.6586  0.9367 -0.8828
 1732SOL     OW 5236   0.085   1.893   0.132 -0.1139 -0.2055  0.1855
 1732SOL    HW1 5237   0.106   1.972   0.182 -1.1618  0.2374 -0.0510
 1732SOL    HW2 5238   0.020   1.847   0.184 -0.1455 -0.4747 -0.0862
 1733SOL     OW 5239   4.564   2.843   0.658  0.1420  0.0332  0.2162
 1733SOL    HW1 5240   4.529   2.786   0.727  0.6069 -0.7591 -0.1840
 1733SOL    HW2 5241   4.505   2.831   0.585 -1.1621  1.9349  0.8819
 1734SOL     OW 5242   3.643   2.358   1.522 -0.0720  0.0029 -0.3763
 1734SOL    HW1 5243   3.589   2.392   1.450  0.8479  0.3365 -0.9282
 1734SOL    HW2 5244   3.589   2.292   1.563 -0.9576  0.4295 -0.8302
 1735SOL     OW 5245   4.176   1.822   0.927 -0.2122  0.4783  0.5543
 1735SOL    HW1 5246   4.093   1.810   0.973 -1.0905  1.0254 -0.8197
 1735SOL    HW2 5247   4.227   1.881   0.983 -0.8590  0.3594  1.2756
 1736SOL     OW 5248   3.957   2.767   1.462 -0.6396 -0.0098  0.0716
 1736SOL    HW1 5249   3.965   2.681   1.504 -0.1053 -0.4897 -0.9898
 1736SOL    HW2 5250   4.047   2.798   1.453 -0.5273 -0.8278 -2.5130
 1737SOL     OW 5251   3.946   3.605   1.626  0.0294 -0.6368  0.0183
 1737SOL    HW1 5252   3.934   3.586   1.533 -0.2605  0.4334 -0.1784
 1737SOL    HW2 5253   4.014   3.544   1.654  1.1298 -0.0471 -1.2264
 1738SOL     OW 5254   4.380   2.799   0.436 -0.5072  0.9625 -0.7498
 1738SOL    HW1 5255   4.372   2.892   0.413  1.1414  0.9495 -1.4858
 1738SOL    HW2 5256   4.344   2.753   0.361 -0.9362  0.9761 -0.5613
 1739SOL     OW 5257   4.326   2.157   0.851 -0.2865 -0.4649 -0.1494
 1739SOL    HW1 5258   4.242   2.157   0.898  0.8054  0.4355  1.9191
 1739SOL    HW2 5259   4.354   2.249   0.851  2.2421 -1.0966  2.2276
 1740SOL     OW 5260   4.507   3.303   1.569 -0.7951 -0.2173 -0.1589
 1740SOL    HW1 5261   4.521   3.394   1.596  1.3328 -0.5433 -0.0188
 1740SOL    HW2 5262   4.471   3.260   1.646  0.1535  0.0520  0.4447
 1741SOL     OW 5263   4.165   2.417   1.673 -0.6800  0.0961  0.0553
 1741SOL    HW1 5264   4.086   2.419   1.620 -0.9382  1.2490  0.4512
 1741SOL    HW2 5265   4.140   2.368   1.751 -0.9719  0.3644  0.1323
 1742SOL     OW 5266   3.814   2.136   1.819 -0.0574  0.1266  0.7218
 1742SOL    HW1 5267   3.872   2.064   1.793  0.2619  0.3905  0.7061
 1742SOL    HW2 5268   3.816   2.134   1.915  1.8142  1.5955  0.7619
 1743SOL     OW 5269   4.334   2.408   0.821  0.4899 -0.5363  0.5135
 1743SOL    HW1 5270   4.331   2.481   0.759  0.9710  0.7159  1.9053
 1743SOL    HW2 5271   4.252   2.414   0.869  0.7539 -0.5956  0.9797
 1744SOL     OW 5272   3.962   1.845   1.494  0.3077  0.1455  0.0709
 1744SOL    HW1 5273   4.015   1.922   1.515 -0.9464  1.6270 -1.8403
 1744SOL    HW2 5274   3.885   1.853   1.550  0.8923 -0.6181  1.0105
 1745SOL     OW 5275   3.713   2.995   1.137  0.3665 -0.1528 -0.7415
 1745SOL    HW1 5276   3.711   2.986   1.232  0.5448 -1.7299 -0.8633
 1745SOL    HW2 5277   3.675   3.082   1.121 -1.5147 -0.6362  0.6674
 1746SOL     OW 5278   3.603   1.788   0.449 -0.5937  0.2104  0.2274
 1746SOL    HW1 5279   3.610   1.863   0.509  1.1144  0.1877  0.1082
 1746SOL    HW2 5280   3.542   1.729   0.492  1.9707 -0.6983  3.0153
 1747SOL     OW 5281   3.919   2.897   1.859 -0.0467 -0.0349  0.1995
 1747SOL    HW1 5282   3.931   2.925   1.769 -0.4234  0.9269  0.4357
 1747SOL    HW2 5283   3.824   2.894   1.871 -0.0114 -1.0669  0.2972
 1748SOL     OW 5284   4.068   2.157   1.222 -0.2499 -0.7011 -0.2017
 1748SOL    HW1 5285   4.036   2.247   1.226  1.5399 -0.0191 -0.3064
 1748SOL    HW2 5286   4.068   2.127   1.313  0.1786 -0.2101 -0.0368
 1749SOL     OW 5287   4.069   2.098   0.933  0.5339  0.9005  0.2372
 1749SOL    HW1 5288   4.068   2.113   1.027  0.5179 -0.1649  0.4135
 1749SOL    HW2 5289   4.018   2.018   0.920  1.9319  0.0763 -0.4860
 1750SOL     OW 5290   3.767   3.485   0.828  0.1903  0.1484 -0.1706
 1750SOL    HW1 5291   3.828   3.554   0.855 -1.2866  1.6365 -0.4929
 1750SOL    HW2 5292   3.720   3.523   0.754 -0.8883 -1.1053 -0.1483
 1751SOL     OW 5293   3.923   2.460   1.588 -0.3832 -0.5582  0.1427
 1751SOL    HW1 5294   3.897   2.505   1.668  0.1303  1.8312 -0.9370
 1751SOL    HW2 5295   3.846   2.409   1.562 -1.1602  0.0304  1.2169
 1752SOL     OW 5296   3.703   2.497   2.091 -0.4098  0.1448 -0.0908
 1752SOL    HW1 5297   3.643   2.424   2.083 -0.6920  0.4010 -0.3269
 1752SOL    HW2 5298   3.647   2.574   2.098 -0.1517  0.1853  1.9419
 1753SOL     OW 5299   0.326   2.158   0.173  0.2669 -0.1298 -0.5063
 1753SOL    HW1 5300   0.387   2.084   0.167 -0.0571 -0.3352 -1.4028
 1753SOL    HW2 5301   0.314   2.171   0.267  0.3868 -1.1702 -0.3303
 1754SOL     OW 5302   4.159   3.495   1.795  0.1647 -0.0498 -0.8392
 1754SOL    HW1 5303   4.116   3.414   1.822 -1.4147  0.8166 -0.6468
 1754SOL    HW2 5304   4.207   3.472   1.715  1.0653 -1.5318  0.0886
 1755SOL     OW 5305   2.358   4.356   2.993  0.1515  0.5352  0.0636
 1755SOL    HW1 5306   2.407   4.333   3.072  0.5733 -1.0680 -0.6304
 1755SOL    HW2 5307   2.266   4.350   3.020  0.3022  0.5498  0.5853
 1756SOL     OW 5308   3.736   2.940   1.392  0.5027 -0.2685 -0.5795
 1756SOL    HW1 5309   3.665   2.917   1.452  0.4050 -0.4247 -0.7565
 1756SOL    HW2 5310   3.809   2.884   1.420  0.5940 -0.0286 -0.3257
 1757SOL     OW 5311   3.673   3.210   0.956  0.4544  0.2750 -0.1158
 1757SOL    HW1 5312   3.680   3.146   0.885 -0.2690  0.6359 -0.5366
 1757SOL    HW2 5313   3.699   3.293   0.916 -0.7801  0.6365 -0.2177
 1758SOL     OW 5314   3.926   3.845   1.964  0.6001 -0.3319 -0.0796
 1758SOL    HW1 5315   3.838   3.882   1.967  0.2384 -1.2005  1.1235
 1758SOL    HW2 5316   3.973   3.889   2.035  0.1584 -2.1002  1.3749
 1759SOL     OW 5317   4.024   2.289   0.702 -0.0649  0.0837 -0.2589
 1759SOL    HW1 5318   4.016   2.342   0.781 -0.4312 -0.1973 -0.1036
 1759SOL    HW2 5319   4.106   2.240   0.714 -1.1088 -1.4963  0.9041
 1760SOL     OW 5320   4.251   3.354   1.539  0.4923 -0.0719  0.0410
 1760SOL    HW1 5321   4.339   3.325   1.514  0.2513 -2.1700  1.3570
 1760SOL    HW2 5322   4.192   3.302   1.484  0.0060  1.6568 -1.1705
 1761SOL     OW 5323   3.980   3.616   0.607  0.1709  0.6243  0.1535
 1761SOL    HW1 5324   3.936   3.652   0.531 -0.6204 -1.2460 -0.3226
 1761SOL    HW2 5325   3.946   3.667   0.681 -1.1760  0.6283 -0.4446
 1762SOL     OW 5326   3.639   2.903   1.884  0.1692  0.9338 -0.1497
 1762SOL    HW1 5327   3.594   2.971   1.934  0.5028  0.5555  0.6975
 1762SOL    HW2 5328   3.610   2.821   1.924  2.4864  0.7028  1.2484
 1763SOL     OW 5329   4.200   3.756   1.874 -0.4846 -0.1230 -0.6808
 1763SOL    HW1 5330   4.110   3.773   1.904 -0.6723 -2.2186  0.0721
 1763SOL    HW2 5331   4.201   3.664   1.852  1.7877 -0.4403  0.4608
 1764SOL     OW 5332   4.023   3.088   2.046 -0.1393 -0.3885 -0.2181
 1764SOL    HW1 5333   4.052   3.159   1.989 -1.1852 -0.3475 -0.7077
 1764SOL    HW2 5334   3.997   3.018   1.987  0.9923 -1.2525  0.2583
 1765SOL     OW 5335   4.291   3.312   0.486 -0.3461 -0.4000  0.0726
 1765SOL    HW1 5336   4.359   3.270   0.539 -0.5909 -1.6341 -0.5476
 1765SOL    HW2 5337   4.212   3.306   0.540 -0.5934 -1.6457 -0.3892
 1766SOL     OW 5338   4.470   2.753   1.535 -0.1527  0.4792  0.0547
 1766SOL    HW1 5339   4.566   2.749   1.536 -0.0283  2.3451  0.8039
 1766SOL    HW2 5340   4.449   2.826   1.594 -2.1093 -0.8697  1.1456
 1767SOL     OW 5341   4.365   2.394   0.444  0.7236  0.2104 -0.1656
 1767SOL    HW1 5342   4.423   2.449   0.497 -0.6777  1.1553  0.4242
 1767SOL    HW2 5343   4.392   2.412   0.353  0.4426  1.7350  0.0264
 1768SOL     OW 5344   4.380   2.524   1.376 -0.4347 -0.2300  0.5291
 1768SOL    HW1 5345   4.411   2.612   1.400 -0.7636  0.5356 -1.5964
 1768SOL    HW2 5346   4.297   2.540   1.331 -0.3587 -1.6113 -0.1552
 1769SOL     OW 5347   4.069   3.051   0.253 -0.2696 -0.1572  0.0048
 1769SOL    HW1 5348   3.988   3.028   0.300 -0.6159  1.8494  0.4896
 1769SOL    HW2 5349   4.091   2.972   0.204 -3.8789 -0.1099 -2.1100
 1770SOL     OW 5350   4.017   2.738   2.157 -0.2046 -0.0138  0.3208
 1770SOL    HW1 5351   4.042   2.826   2.129  0.7743 -0.2745  0.3170
 1770SOL    HW2 5352   4.020   2.686   2.076  3.5438 -0.9746  0.8590
 1771SOL     OW 5353   4.317   2.454   2.592  0.6246 -0.4030  0.1737
 1771SOL    HW1 5354   4.412   2.464   2.583  0.5882 -0.5869 -0.4759
 1771SOL    HW2 5355   4.281   2.536   2.559  0.5890  0.1661  1.5504
 1772SOL     OW 5356   3.662   2.287   2.554 -0.1941 -0.2209 -0.6785
 1772SOL    HW1 5357   3.691   2.357   2.496 -1.2034 -0.6132 -1.7065
 1772SOL    HW2 5358   3.743   2.251   2.590  0.5330 -0.2725 -2.2443
 1773SOL     OW 5359   4.558   2.979   2.470 -0.1974 -0.3061 -0.1417
 1773SOL    HW1 5360   4.642   3.019   2.450  0.1295 -1.4397 -1.1968
 1773SOL    HW2 5361   4.512   2.978   2.386 -0.3338 -1.7676 -0.0775
 1774SOL     OW 5362   4.135   3.012   2.898  0.4209  0.4418 -0.2997
 1774SOL    HW1 5363   4.111   3.103   2.913 -3.4022 -0.6466  1.3689
 1774SOL    HW2 5364   4.161   2.980   2.985 -0.6269 -0.6028 -0.3473
 1775SOL     OW 5365   3.958   3.421   2.454  0.0423  0.1068 -0.3183
 1775SOL    HW1 5366   4.036   3.392   2.406  0.6214 -0.2731  0.8260
 1775SOL    HW2 5367   3.990   3.447   2.540 -1.0987 -0.0976  0.1911
 1776SOL     OW 5368   3.822   3.242   2.962  0.3245  0.3672 -0.4324
 1776SOL    HW1 5369   3.733   3.251   2.996  0.2154 -0.1542 -0.5815
 1776SOL    HW2 5370   3.813   3.189   2.883  0.5571  1.6668 -1.3592
 1777SOL     OW 5371   4.109   2.777   2.774  0.7215 -0.2395  0.6139
 1777SOL    HW1 5372   4.202   2.756   2.771  0.8683  0.4329  0.2656
 1777SOL    HW2 5373   4.104   2.860   2.821  0.2230 -0.6668  1.3254
 1778SOL     OW 5374   3.783   2.944   2.396 -0.1216 -0.2494 -0.4037
 1778SOL    HW1 5375   3.733   3.021   2.421  0.9265  0.1344  0.6030
 1778SOL    HW2 5376   3.774   2.884   2.469  1.5701  0.1845  0.2127
 1779SOL     OW 5377   3.854   3.261   2.653  0.4097  0.1031  0.6939
 1779SOL    HW1 5378   3.854   3.299   2.565 -0.2695 -1.1013  0.1479
 1779SOL    HW2 5379   3.924   3.195   2.650  0.1077 -0.2318  0.9113
 1780SOL     OW 5380   4.305   2.954   2.301 -0.2746 -0.1265 -0.2175
 1780SOL    HW1 5381   4.318   2.870   2.258 -0.7076  0.5168 -1.6662
 1780SOL    HW2 5382   4.211   2.970   2.295 -0.2131  0.4065  0.1493
 1781SOL     OW 5383   3.369   2.589   2.829  0.0317  0.1382  0.3045
 1781SOL    HW1 5384   3.314   2.666   2.845 -0.4903 -0.4112  1.2896
 1781SOL    HW2 5385   3.307   2.517   2.819  0.5435 -0.3285  0.4367
 1782SOL     OW 5386   4.929   2.346   2.057  0.0678 -0.3201  0.1911
 1782SOL    HW1 5387   5.005   2.291   2.075  0.0387 -0.1721  0.7836
 1782SOL    HW2 5388   4.862   2.286   2.024  0.1579 -0.5795  0.4848
 1783SOL     OW 5389   4.618   1.777   2.263  0.2032 -0.4186  0.5008
 1783SOL    HW1 5390   4.541   1.763   2.318 -0.4067 -0.6059 -0.3843
 1783SOL    HW2 5391   4.644   1.867   2.281  0.4042 -0.6725  1.5684
 1784SOL     OW 5392   4.031   3.484   2.705 -0.1179  0.6761 -0.3183
 1784SOL    HW1 5393   4.035   3.411   2.768  1.5422  1.0388  0.0429
 1784SOL    HW2 5394   3.992   3.556   2.754 -1.9188  0.0080 -0.7246
 1785SOL     OW 5395   4.026   3.244   1.809  0.3271 -0.2994  0.4520
 1785SOL    HW1 5396   3.940   3.249   1.850  0.3943 -0.5561  0.6330
 1785SOL    HW2 5397   4.017   3.176   1.742  0.0521  0.5506 -0.3820
 1786SOL     OW 5398   3.979   2.633   2.426  1.0968  0.5230 -0.0428
 1786SOL    HW1 5399   3.967   2.656   2.334  0.3833  0.2364 -0.0283
 1786SOL    HW2 5400   4.073   2.643   2.441  1.7514 -2.2149 -1.5896
 1787SOL     OW 5401   3.924   1.838   1.987 -0.5937 -0.0448  0.1472
 1787SOL    HW1 5402   3.885   1.783   2.054  1.1699 -0.3627  0.9539
 1787SOL    HW2 5403   3.942   1.921   2.031  1.9502 -0.7375  0.5818
 1788SOL     OW 5404   4.435   6.095   2.457 -0.6315  0.4378 -0.5680
 1788SOL    HW1 5405   4.352   6.096   2.410 -1.2581  0.1799  0.4856
 1788SOL    HW2 5406   4.420   6.037   2.532  0.0923  1.3743  0.3377
 1789SOL     OW 5407   4.026   3.037   2.307 -0.0942 -0.2977 -0.0216
 1789SOL    HW1 5408   4.005   3.062   2.217 -3.1616  2.4878  1.2629
 1789SOL    HW2 5409   3.946   2.994   2.339  0.0286  0.8123  1.9606
 1790SOL     OW 5410   4.168   3.247   2.405 -0.2487  0.0510  0.1341
 1790SOL    HW1 5411   4.152   3.226   2.496 -0.0642  1.8666  0.6333
 1790SOL    HW2 5412   4.121   3.180   2.355  0.8958 -1.8557  1.5299
 1791SOL     OW 5413   4.023   2.479   2.693  0.4181  0.2327  0.3473
 1791SOL    HW1 5414   4.015   2.562   2.647 -1.2385  0.0673  0.2835
 1791SOL    HW2 5415   4.114   2.453   2.680  0.3253  0.7871 -1.7957
 1792SOL     OW 5416   3.997   2.012   2.549  0.0042 -0.1808  0.6052
 1792SOL    HW1 5417   3.963   2.083   2.604 -0.9473 -0.9812  1.0880
 1792SOL    HW2 5418   4.054   1.962   2.607  0.4151 -0.0008  0.3569
 1793SOL     OW 5419   3.924   2.671   2.963  0.1966 -0.3705  0.2414
 1793SOL    HW1 5420   3.843   2.633   2.928  0.1147 -0.3525  0.4125
 1793SOL    HW2 5421   3.969   2.705   2.886 -0.6241  0.9032  0.2837
 1794SOL     OW 5422   3.880   2.236   2.704 -0.3704  0.4117 -0.3732
 1794SOL    HW1 5423   3.954   2.296   2.719  0.4481 -0.4637 -0.8094
 1794SOL    HW2 5424   3.855   2.206   2.791 -0.5495  1.0907 -0.1809
 1795SOL     OW 5425   3.639   3.227   2.187 -0.1262 -0.4104  0.6587
 1795SOL    HW1 5426   3.604   3.146   2.149  0.1888 -0.0462 -0.4517
 1795SOL    HW2 5427   3.687   3.268   2.115 -2.0676  1.8621  0.5479
 1796SOL     OW 5428   3.686   3.570   2.934 -0.1565 -0.4579 -0.5020
 1796SOL    HW1 5429   3.710   3.478   2.926  2.9480  0.2303 -0.3569
 1796SOL    HW2 5430   3.656   3.580   3.025  0.5889 -1.1160 -0.1786
 1797SOL     OW 5431   4.691   2.039   2.287  0.1611  0.1435 -0.0041
 1797SOL    HW1 5432   4.663   2.130   2.295 -0.8866  0.1532 -2.7655
 1797SOL    HW2 5433   4.752   2.039   2.214  0.1036 -1.3869 -0.0879
 1798SOL     OW 5434   4.099   2.570   1.937 -0.0776  0.3052 -0.1760
 1798SOL    HW1 5435   4.136   2.566   1.849  1.0642  0.7950  0.2598
 1798SOL    HW2 5436   4.052   2.488   1.947  1.7676 -0.8430 -0.3951
 1799SOL     OW 5437   3.695   2.591   2.783 -0.2945  0.0322 -0.0887
 1799SOL    HW1 5438   3.701   2.514   2.726 -0.2858 -0.8320  1.0544
 1799SOL    HW2 5439   3.603   2.595   2.809 -0.4108  0.7462 -0.5782
 1800SOL     OW 5440   4.251   2.183   2.396 -0.1442  0.1770 -0.3649
 1800SOL    HW1 5441   4.299   2.254   2.355  0.8272 -0.2114  0.0548
 1800SOL    HW2 5442   4.160   2.212   2.396  0.0686  0.8995 -1.2552
 1801SOL     OW 5443   4.239   3.647   2.600  0.3352  0.1504  0.4810
 1801SOL    HW1 5444   4.293   3.598   2.538 -0.7148 -0.7101  0.2301
 1801SOL    HW2 5445   4.171   3.586   2.627  0.0923  0.8816  1.6110
 1802SOL     OW 5446   4.069   3.069   2.625 -0.0735 -0.4083 -0.6103
 1802SOL    HW1 5447   4.074   2.984   2.581  0.0106 -1.5391  1.4508
 1802SOL    HW2 5448   4.074   3.048   2.719 -2.4857  1.6801  0.0937
 1803SOL     OW 5449   2.284   4.188   0.297 -0.0107  0.3652 -0.0087
 1803SOL    HW1 5450   2.270   4.236   0.216  0.6381  0.3369 -0.1458
 1803SOL    HW2 5451   2.370   4.217   0.328  0.0520 -0.1337  0.3037
 1804SOL     OW 5452   3.357   2.095   1.937  0.6439  0.4447 -0.5219
 1804SOL    HW1 5453   3.330   2.016   1.985  1.9029  0.4803  0.2916
 1804SOL    HW2 5454   3.277   2.146   1.928 -0.1128 -0.7327 -0.6847
 1805SOL     OW 5455   3.573   2.276   2.116 -0.4719 -0.1252  0.2566
 1805SOL    HW1 5456   3.651   2.221   2.119 -0.2394  0.2500  1.6796
 1805SOL    HW2 5457   3.512   2.229   2.059  0.8815 -0.2729 -1.1236
 1806SOL     OW 5458   3.834   2.787   2.667  0.0875  0.4901 -0.2121
 1806SOL    HW1 5459   3.928   2.769   2.673  0.0828  0.1516 -0.9375
 1806SOL    HW2 5460   3.792   2.714   2.713  0.2099  1.3869  1.3591
 1807SOL     OW 5461   4.078   2.300   2.075 -0.1151  0.1500  0.0466
 1807SOL    HW1 5462   3.999   2.252   2.052  1.1060 -1.5370 -0.8048
 1807SOL    HW2 5463   4.078   2.300   2.171 -0.8754 -0.2620  0.0576
 1808SOL     OW 5464   3.578   2.717   2.205 -0.3046 -0.8333 -0.4459
 1808SOL    HW1 5465   3.635   2.793   2.219 -0.8605  0.1521 -3.1080
 1808SOL    HW2 5466   3.514   2.722   2.276  2.0485 -1.2409  1.8653
 1809SOL     OW 5467   3.614   4.074   1.065 -0.0960 -0.5521 -0.3325
 1809SOL    HW1 5468   3.655   4.028   1.138  2.5149  1.0422 -0.7005
 1809SOL    HW2 5469   3.607   4.007   0.996  0.0999 -1.3327  0.3861
 1810SOL     OW 5470   3.864   3.975   0.855  0.1751 -0.4737 -0.1324
 1810SOL    HW1 5471   3.891   3.946   0.942  1.7361  0.7816 -0.1689
 1810SOL    HW2 5472   3.770   3.954   0.851  0.0047 -0.2974  1.9425
 1811SOL     OW 5473   4.470   3.749   1.621  0.4270  0.0740 -0.1223
 1811SOL    HW1 5474   4.378   3.725   1.605  0.2695  0.5126  0.1286
 1811SOL    HW2 5475   4.498   3.691   1.692  0.1940  0.2906  0.1465
 1812SOL     OW 5476   3.858   4.177   0.624  0.0781  0.1595  0.1900
 1812SOL    HW1 5477   3.874   4.124   0.702  0.0213  0.4627  0.4115
 1812SOL    HW2 5478   3.838   4.264   0.659  0.0015  0.2827 -0.1625
 1813SOL     OW 5479   3.991   4.100   1.782  0.2918  0.0267 -0.5717
 1813SOL    HW1 5480   4.039   4.163   1.836 -2.0675  0.5469  1.0654
 1813SOL    HW2 5481   4.016   4.015   1.818  1.3928  0.1537 -0.9939
 1814SOL     OW 5482   3.570   4.160   0.563 -0.1267 -0.4593 -0.4726
 1814SOL    HW1 5483   3.648   4.105   0.566 -1.1722 -2.0678 -1.3854
 1814SOL    HW2 5484   3.603   4.245   0.534  1.0272 -1.8124 -3.6070
 1815SOL     OW 5485   4.510   3.824   0.365  0.0296  0.1666  0.8434
 1815SOL    HW1 5486   4.508   3.781   0.279 -0.7766  3.0779 -0.7473
 1815SOL    HW2 5487   4.419   3.822   0.395 -0.2906  1.8466  0.0911
 1816SOL     OW 5488   3.977   3.702   0.902 -0.1399 -0.0088 -0.2217
 1816SOL    HW1 5489   3.943   3.765   0.965 -1.2558 -0.5836 -0.2177
 1816SOL    HW2 5490   4.069   3.725   0.891 -0.5774  1.7693 -0.4096
 1817SOL     OW 5491   3.749   4.115   1.679 -0.5117 -0.2311  0.1960
 1817SOL    HW1 5492   3.693   4.191   1.664 -0.8184 -0.5192 -0.1339
 1817SOL    HW2 5493   3.831   4.152   1.712 -0.3201  0.3091 -0.8634
 1818SOL     OW 5494   4.262   3.653   0.618  0.0279 -0.7539  0.0965
 1818SOL    HW1 5495   4.174   3.615   0.619 -0.4879  0.3733  1.0246
 1818SOL    HW2 5496   4.248   3.744   0.591  0.8994 -0.5477  0.3137
 1819SOL     OW 5497   3.769   4.636   1.697  0.3133 -0.0195  0.1757
 1819SOL    HW1 5498   3.696   4.587   1.736  0.9906 -0.4016  1.0049
 1819SOL    HW2 5499   3.745   4.728   1.709 -0.5546 -0.1266 -0.5948
 1820SOL     OW 5500   3.951   3.907   1.102 -0.2931  0.1090 -0.4846
 1820SOL    HW1 5501   4.024   3.964   1.126 -0.2396 -0.0541 -0.2555
 1820SOL    HW2 5502   3.883   3.928   1.167 -0.1933 -0.2465 -0.2676
 1821SOL     OW 5503   4.421   3.952   1.134  1.2799  0.0853  0.1073
 1821SOL    HW1 5504   4.483   4.023   1.153  0.1549  1.1348 -0.0598
 1821SOL    HW2 5505   4.472   3.872   1.149  2.3699  0.9064  1.0017
 1822SOL     OW 5506   4.343   3.995   1.775  0.2502 -0.1885 -0.1906
 1822SOL    HW1 5507   4.282   3.922   1.784  0.0227  0.0100 -0.1128
 1822SOL    HW2 5508   4.393   3.976   1.695  0.8521 -0.9111  0.3508
 1823SOL     OW 5509   3.858   3.869   1.530  0.0867 -0.7360  0.2063
 1823SOL    HW1 5510   3.868   3.942   1.590  0.5972  0.4367 -1.2365
 1823SOL    HW2 5511   3.896   3.794   1.576  2.2390  0.5313  0.6138
 1824SOL     OW 5512   3.914   3.079   0.754  0.2912  0.3551 -0.2114
 1824SOL    HW1 5513   3.946   3.164   0.723  2.5258 -0.5744 -0.6981
 1824SOL    HW2 5514   3.821   3.078   0.731  0.0371  2.8968  0.3784
 1825SOL     OW 5515   4.172   4.055   1.163  0.4252 -0.0633  0.1665
 1825SOL    HW1 5516   4.257   4.020   1.139  0.5649  1.0641 -1.1236
 1825SOL    HW2 5517   4.190   4.117   1.234  0.5129 -0.7104  0.7100
 1826SOL     OW 5518   3.672   4.288   0.876  0.4404  0.5642  0.3600
 1826SOL    HW1 5519   3.578   4.302   0.859  0.1021 -1.9814 -0.1496
 1826SOL    HW2 5520   3.675   4.257   0.966  0.9201  1.5343  0.6894
 1827SOL     OW 5521   4.037   4.585   1.643 -0.4369 -0.1078  0.2258
 1827SOL    HW1 5522   3.943   4.592   1.654 -0.3759 -1.7729  2.3619
 1827SOL    HW2 5523   4.071   4.572   1.731  1.9555  1.5603 -0.3322
 1828SOL     OW 5524   0.430   3.945   0.460 -1.1334  0.4464 -0.0111
 1828SOL    HW1 5525   0.409   3.954   0.553 -1.3028 -1.4896  0.1757
 1828SOL    HW2 5526   0.356   3.897   0.423 -0.0686 -0.7644 -0.6620
 1829SOL     OW 5527   4.469   4.176   0.282 -0.1760  0.0051 -0.1977
 1829SOL    HW1 5528   4.547   4.231   0.288 -0.0972 -0.1201 -0.0676
 1829SOL    HW2 5529   4.471   4.122   0.361 -0.5011  0.1425 -0.0917
 1830SOL     OW 5530   4.046   3.925   0.659  0.0998  0.3885  0.3287
 1830SOL    HW1 5531   4.012   3.955   0.574 -0.2139 -1.3330 -0.1880
 1830SOL    HW2 5532   3.978   3.948   0.722 -0.8865 -0.6674 -0.3053
 1831SOL     OW 5533   3.973   4.235   0.115  0.4538 -0.0637 -0.2747
 1831SOL    HW1 5534   3.961   4.316   0.065 -0.8753 -0.3104 -0.3918
 1831SOL    HW2 5535   3.885   4.213   0.146  0.9922 -0.8159  0.7865
 1832SOL     OW 5536   4.252   3.944   0.813  0.1986 -0.6127  0.6307
 1832SOL    HW1 5537   4.186   3.918   0.749 -0.9867 -1.0887  2.0042
 1832SOL    HW2 5538   4.239   4.038   0.825  1.0914 -0.3131 -0.5277
 1833SOL     OW 5539   3.956   4.275   1.523  0.0618  0.5707  0.7740
 1833SOL    HW1 5540   4.008   4.352   1.501 -0.7226  0.7016 -0.7513
 1833SOL    HW2 5541   4.019   4.215   1.564  0.7649  1.8375  1.6372
 1834SOL     OW 5542   1.587   1.637   0.269  0.2002  0.0672 -0.4949
 1834SOL    HW1 5543   1.529   1.710   0.290  1.9282  1.1766  0.7049
 1834SOL    HW2 5544   1.535   1.581   0.212 -0.8036  2.8506 -2.5397
 1835SOL     OW 5545   3.357   3.620   2.646  0.1974  1.2490  0.2659
 1835SOL    HW1 5546   3.301   3.681   2.598  1.2173  0.8176 -1.5920
 1835SOL    HW2 5547   3.440   3.621   2.598  1.0305  0.2029  1.6132
 1836SOL     OW 5548   3.856   4.423   2.455 -0.7107 -0.4519 -0.0757
 1836SOL    HW1 5549   3.761   4.408   2.457 -0.7939  0.0836  0.7386
 1836SOL    HW2 5550   3.867   4.492   2.389 -0.8070 -1.0152 -0.6840
 1837SOL     OW 5551   3.627   4.045   2.696 -0.1667  0.0744 -0.1380
 1837SOL    HW1 5552   3.609   3.970   2.752  1.3552  0.0297  0.3191
 1837SOL    HW2 5553   3.540   4.074   2.666 -0.7283 -3.1151 -2.0579
 1838SOL     OW 5554   4.697   4.378   1.723  0.0296 -0.6087  0.3307
 1838SOL    HW1 5555   4.613   4.376   1.770 -0.5180 -1.0308 -0.6383
 1838SOL    HW2 5556   4.759   4.339   1.785 -0.9221 -2.2883  0.3061
 1839SOL     OW 5557   4.246   4.581   2.560 -0.0607  0.0695 -0.3990
 1839SOL    HW1 5558   4.325   4.531   2.540 -0.7043 -0.9486 -0.4684
 1839SOL    HW2 5559   4.252   4.598   2.654  0.3658  0.2242 -0.4503
 1840SOL     OW 5560   4.338   4.163   2.075  0.4232 -0.0160  0.3975
 1840SOL    HW1 5561   4.432   4.157   2.093  0.4991  1.5758  0.6225
 1840SOL    HW2 5562   4.305   4.076   2.097  1.7537 -0.4514  0.8192
 1841SOL     OW 5563   4.400   4.133   2.790  0.6368 -0.1267 -0.7086
 1841SOL    HW1 5564   4.315   4.140   2.834  0.9321  1.0226 -0.2655
 1841SOL    HW2 5565   4.403   4.044   2.756 -0.9890  0.0048 -1.2428
 1842SOL     OW 5566   4.408   3.870   2.644 -0.4325 -0.4805  0.5032
 1842SOL    HW1 5567   4.484   3.818   2.618  1.2961  1.9468  0.3954
 1842SOL    HW2 5568   4.332   3.817   2.617  1.1938 -2.3647 -0.6450
 1843SOL     OW 5569   4.269   3.679   2.903 -0.1372  0.6321  0.3940
 1843SOL    HW1 5570   4.359   3.707   2.888  0.2812 -0.8582  0.0060
 1843SOL    HW2 5571   4.231   3.675   2.815 -0.6772  1.4744  0.5704
 1844SOL     OW 5572   4.036   3.838   2.699 -0.1189  0.5101  0.2021
 1844SOL    HW1 5573   3.989   3.784   2.762 -1.8778 -0.7515 -2.0100
 1844SOL    HW2 5574   4.113   3.785   2.676 -0.7928 -0.1970 -0.4957
 1845SOL     OW 5575   3.931   3.663   2.868 -0.2056 -0.2915 -0.6343
 1845SOL    HW1 5576   3.839   3.639   2.877 -0.9184  1.8597 -1.3923
 1845SOL    HW2 5577   3.962   3.671   2.958 -1.2432  0.4685 -0.3134
 1846SOL     OW 5578   1.797   1.571   0.095 -0.0747  0.1519 -0.2743
 1846SOL    HW1 5579   1.835   1.656   0.072 -0.4309  0.5803  0.6751
 1846SOL    HW2 5580   1.729   1.591   0.159 -0.0746 -0.8635  0.0694
 1847SOL     OW 5581   4.701   4.482   2.061 -0.0275  0.4501  0.0287
 1847SOL    HW1 5582   4.697   4.397   2.017  1.0394  0.5144 -0.1988
 1847SOL    HW2 5583   4.748   4.539   2.000  0.6534  0.7799  0.8489
 1848SOL     OW 5584   3.913   4.059   2.784 -0.2807  0.5091  0.1679
 1848SOL    HW1 5585   3.834   4.034   2.735  0.0436 -0.1024 -0.0546
 1848SOL    HW2 5586   3.973   3.986   2.771  0.7383  1.4417 -0.5774
 1849SOL     OW 5587   3.745   4.057   2.062 -0.0617 -0.4218  0.1599
 1849SOL    HW1 5588   3.807   4.122   2.096  0.6370 -0.1700 -1.4817
 1849SOL    HW2 5589   3.701   4.022   2.140  2.6114 -1.1056  1.4610
 1850SOL     OW 5590   4.060   3.934   2.203  0.0291  0.3911  0.0339
 1850SOL    HW1 5591   4.023   4.017   2.235  0.6251  0.6699  0.0186
 1850SOL    HW2 5592   4.154   3.941   2.222  0.2619  0.1968 -0.9809
 1851SOL     OW 5593   4.015   4.045   2.511 -0.1333 -0.1543  0.3945
 1851SOL    HW1 5594   3.923   4.060   2.487  0.4414  1.7474 -0.8578
 1851SOL    HW2 5595   4.013   3.965   2.564 -2.2195 -1.4948 -1.4962
 1852NaJ    NaJ 5596   1.369   1.023   1.193  0.4922 -0.1710 -0.1764
 1853NaJ    NaJ 5597   1.631   4.671   1.587  0.1535  0.0819 -0.0893
 1854NaJ    NaJ 5598   1.612   4.370   0.719  0.5474 -0.2258  0.3717
 1855NaJ    NaJ 5599   3.838   4.989   1.460  0.0683 -0.0982  0.3538
 1856NaJ    NaJ 5600   3.580   1.891   0.226 -0.2804  0.1228  0.4650
 1857ClJ    ClJ 5601   0.506   0.302   0.050  0.1055  0.1754  0.1911
 1858ClJ    ClJ 5602   5.314   3.450   1.615  0.4841 -0.4331 -0.4915
 1859ClJ    ClJ 5603   2.521   1.880  -0.019  0.3414  0.2750 -0.1419
 1860ClJ    ClJ 5604   2.071   4.104   2.679 -0.3256 -0.2157  0.2062
 1861ClJ    ClJ 5605   3.828   2.096   2.111  0.0576 -0.2749 -0.0214
   4.33090   4.33090   3.06241   0.00000   0.00000   0.00000   0.00000   2.16545   2.16545
