ligand in water
 5605
    1LIG      C    1   3.382   3.772   1.423
    1LIG     C1    2   3.324   3.630   1.433
    1LIG      O    3   3.203   3.637   1.512
    1LIG     C2    4   3.132   3.524   1.544
    1LIG      N    5   3.173   3.406   1.495
    1LIG     C3    6   3.109   3.295   1.530
    1LIG     C4    7   2.999   3.298   1.615
    1LIG     C5    8   2.953   3.419   1.663
    1LIG     N1    9   2.841   3.421   1.743
    1LIG     C6   10   3.021   3.536   1.629
    1LIG     C7   11   2.978   3.664   1.678
    1LIG     N2   12   2.940   3.765   1.720
    1LIG     N3   13   3.156   3.174   1.482
    1LIG     C8   14   3.082   3.072   1.428
    1LIG     O1   15   2.961   3.073   1.429
    1LIG     C9   16   3.162   2.961   1.360
    1LIG    C10   17   3.292   2.924   1.430
    1LIG    C11   18   3.292   2.852   1.552
    1LIG     CL   19   3.141   2.806   1.629
    1LIG    C12   20   3.413   2.817   1.613
    1LIG    C13   21   3.536   2.852   1.554
    1LIG    C14   22   3.536   2.924   1.433
    1LIG    C15   23   3.415   2.960   1.372
    1LIG      H   24   3.470   3.773   1.358
    1LIG     H1   25   3.308   3.842   1.382
    1LIG     H2   26   3.413   3.809   1.522
    1LIG     H3   27   3.301   3.593   1.333
    1LIG     H4   28   3.397   3.564   1.480
    1LIG     H5   29   2.950   3.205   1.643
    1LIG     H6   30   2.791   3.509   1.745
    1LIG     H7   31   2.780   3.340   1.735
    1LIG     H8   32   3.256   3.163   1.488
    1LIG     H9   33   3.097   2.873   1.352
    1LIG    H10   34   3.181   2.995   1.257
    1LIG    H11   35   3.412   2.761   1.706
    1LIG    H12   36   3.629   2.823   1.600
    1LIG    H13   37   3.630   2.950   1.385
    1LIG    H14   38   3.418   3.014   1.277
    1LIG    EP1   39   2.974   2.754   1.714
    1LIG    DCL   40   3.412   2.727   1.763
    1LIG    HV6   41   2.786   3.336   1.750
    1LIG    HV7   42   2.798   3.510   1.763
    1LIG    HV8   43   3.256   3.169   1.470
    1LIG   HV11   44   3.198   2.824   1.598
    1LIG   DEP1   45   3.411   2.627   1.930
    2SOL     OW   46   0.115   0.563   0.015
    2SOL    HW1   47   0.099   0.568   0.111
    2SOL    HW2   48   0.211   0.543   0.014
    3SOL     OW   49   4.539   0.273   0.991
    3SOL    HW1   50   4.593   0.241   1.065
    3SOL    HW2   51   4.450   0.276   1.034
    4SOL     OW   52   4.366   0.360   0.653
    4SOL    HW1   53   4.278   0.402   0.643
    4SOL    HW2   54   4.371   0.306   0.571
    5SOL     OW   55   4.905   1.301   1.251
    5SOL    HW1   56   4.828   1.305   1.192
    5SOL    HW2   57   4.912   1.394   1.279
    6SOL     OW   58   1.606   1.598   0.688
    6SOL    HW1   59   1.561   1.558   0.765
    6SOL    HW2   60   1.537   1.585   0.620
    7SOL     OW   61   1.141   0.713   0.687
    7SOL    HW1   62   1.184   0.801   0.682
    7SOL    HW2   63   1.082   0.725   0.763
    8SOL     OW   64   1.826   0.584   0.212
    8SOL    HW1   65   1.863   0.515   0.154
    8SOL    HW2   66   1.747   0.539   0.247
    9SOL     OW   67   5.073   1.128   1.124
    9SOL    HW1   68   5.006   1.179   1.175
    9SOL    HW2   69   5.111   1.202   1.073
   10SOL     OW   70   5.242   0.711   1.781
   10SOL    HW1   71   5.265   0.774   1.852
   10SOL    HW2   72   5.249   0.769   1.703
   11SOL     OW   73   0.692   0.984   0.675
   11SOL    HW1   74   0.757   0.994   0.747
   11SOL    HW2   75   0.623   1.049   0.700
   12SOL     OW   76   5.055   1.153   1.855
   12SOL    HW1   77   5.095   1.230   1.898
   12SOL    HW2   78   4.981   1.192   1.805
   13SOL     OW   79   4.702   1.366   1.078
   13SOL    HW1   80   4.663   1.305   1.015
   13SOL    HW2   81   4.737   1.438   1.020
   14SOL     OW   82   1.465   1.480   1.367
   14SOL    HW1   83   1.515   1.560   1.393
   14SOL    HW2   84   1.386   1.487   1.425
   15SOL     OW   85   4.821   0.391   1.465
   15SOL    HW1   86   4.912   0.357   1.468
   15SOL    HW2   87   4.777   0.332   1.529
   16SOL     OW   88   1.527   0.452   0.651
   16SOL    HW1   89   1.430   0.451   0.654
   16SOL    HW2   90   1.543   0.523   0.587
   17SOL     OW   91   4.548   1.714   0.477
   17SOL    HW1   92   4.567   1.789   0.536
   17SOL    HW2   93   4.614   1.727   0.407
   18SOL     OW   94   5.433   1.348   1.711
   18SOL    HW1   95   5.470   1.337   1.800
   18SOL    HW2   96   5.385   1.264   1.701
   19SOL     OW   97   4.661   1.471   0.518
   19SOL    HW1   98   4.625   1.561   0.513
   19SOL    HW2   99   4.589   1.423   0.562
   20SOL     OW  100   4.615   1.082   0.903
   20SOL    HW1  101   4.624   0.987   0.925
   20SOL    HW2  102   4.532   1.107   0.948
   21SOL     OW  103   4.964   1.758   1.520
   21SOL    HW1  104   4.870   1.766   1.547
   21SOL    HW2  105   4.983   1.847   1.487
   22SOL     OW  106   0.555   0.990   0.256
   22SOL    HW1  107   0.586   1.022   0.171
   22SOL    HW2  108   0.621   1.026   0.318
   23SOL     OW  109   1.583   0.129   1.516
   23SOL    HW1  110   1.535   0.061   1.466
   23SOL    HW2  111   1.510   0.174   1.562
   24SOL     OW  112   4.478   0.587   0.537
   24SOL    HW1  113   4.443   0.508   0.580
   24SOL    HW2  114   4.463   0.654   0.607
   25SOL     OW  115   1.931   1.733   0.244
   25SOL    HW1  116   1.996   1.715   0.315
   25SOL    HW2  117   1.925   1.830   0.247
   26SOL     OW  118   4.326   1.547   0.175
   26SOL    HW1  119   4.350   1.454   0.158
   26SOL    HW2  120   4.314   1.549   0.271
   27SOL     OW  121   1.716   0.936   0.664
   27SOL    HW1  122   1.804   0.909   0.636
   27SOL    HW2  123   1.684   0.986   0.587
   28SOL     OW  124   1.650   1.111   0.446
   28SOL    HW1  125   1.727   1.104   0.386
   28SOL    HW2  126   1.682   1.177   0.510
   29SOL     OW  127   4.544   0.704   1.633
   29SOL    HW1  128   4.641   0.707   1.637
   29SOL    HW2  129   4.521   0.798   1.646
   30SOL     OW  130   0.629   1.369   0.795
   30SOL    HW1  131   0.579   1.288   0.775
   30SOL    HW2  132   0.630   1.412   0.707
   31SOL     OW  133   1.216   1.167   1.463
   31SOL    HW1  134   1.252   1.125   1.383
   31SOL    HW2  135   1.296   1.196   1.511
   32SOL     OW  136   0.866   0.088   0.595
   32SOL    HW1  137   0.897   0.164   0.543
   32SOL    HW2  138   0.778   0.073   0.556
   33SOL     OW  139   4.472   0.876   1.264
   33SOL    HW1  140   4.570   0.877   1.265
   33SOL    HW2  141   4.457   0.789   1.220
   34SOL     OW  142   1.475   1.065   0.231
   34SOL    HW1  143   1.430   0.980   0.250
   34SOL    HW2  144   1.539   1.071   0.303
   35SOL     OW  145   1.236   1.863   1.661
   35SOL    HW1  146   1.209   1.915   1.583
   35SOL    HW2  147   1.244   1.774   1.627
   36SOL     OW  148   4.706   0.211   1.631
   36SOL    HW1  149   4.744   0.122   1.646
   36SOL    HW2  150   4.694   0.243   1.723
   37SOL     OW  151   1.490   1.466   0.895
   37SOL    HW1  152   1.425   1.473   0.967
   37SOL    HW2  153   1.480   1.374   0.865
   38SOL     OW  154   1.635   1.842   0.538
   38SOL    HW1  155   1.643   1.794   0.452
   38SOL    HW2  156   1.636   1.768   0.601
   39SOL     OW  157   0.625   0.744   0.364
   39SOL    HW1  158   0.594   0.823   0.317
   39SOL    HW2  159   0.545   0.717   0.412
   40SOL     OW  160   1.292   0.391   0.929
   40SOL    HW1  161   1.206   0.347   0.944
   40SOL    HW2  162   1.350   0.336   0.985
   41SOL     OW  163   1.658   1.719   0.303
   41SOL    HW1  164   1.750   1.706   0.273
   41SOL    HW2  165   1.606   1.690   0.226
   42SOL     OW  166   5.155   0.617   1.432
   42SOL    HW1  167   5.110   0.576   1.508
   42SOL    HW2  168   5.137   0.555   1.359
   43SOL     OW  169   1.404   0.481   1.668
   43SOL    HW1  170   1.392   0.525   1.754
   43SOL    HW2  171   1.456   0.403   1.693
   44SOL     OW  172   5.289   0.893   1.570
   44SOL    HW1  173   5.343   0.831   1.518
   44SOL    HW2  174   5.236   0.935   1.500
   45SOL     OW  175   1.056   0.414   1.197
   45SOL    HW1  176   0.963   0.439   1.212
   45SOL    HW2  177   1.049   0.367   1.113
   46SOL     OW  178   1.109   0.720   0.414
   46SOL    HW1  179   1.120   0.717   0.511
   46SOL    HW2  180   1.017   0.686   0.405
   47SOL     OW  181   4.446   0.740   0.759
   47SOL    HW1  182   4.522   0.759   0.818
   47SOL    HW2  183   4.424   0.831   0.730
   48SOL     OW  184   4.454   1.866   1.631
   48SOL    HW1  185   4.446   1.816   1.714
   48SOL    HW2  186   4.363   1.902   1.623
   49SOL     OW  187   0.880   0.427   0.212
   49SOL    HW1  188   0.950   0.457   0.151
   49SOL    HW2  189   0.862   0.337   0.178
   50SOL     OW  190   1.668   0.612   1.841
   50SOL    HW1  191   1.633   0.689   1.794
   50SOL    HW2  192   1.693   0.552   1.770
   51SOL     OW  193   1.391   1.163   0.562
   51SOL    HW1  194   1.461   1.151   0.497
   51SOL    HW2  195   1.331   1.226   0.518
   52SOL     OW  196   4.939   0.209   0.953
   52SOL    HW1  197   4.940   0.233   1.048
   52SOL    HW2  198   4.915   0.294   0.911
   53SOL     OW  199   0.992   1.479   0.501
   53SOL    HW1  200   0.973   1.546   0.432
   53SOL    HW2  201   0.948   1.519   0.578
   54SOL     OW  202   4.692   1.814   0.884
   54SOL    HW1  203   4.734   1.727   0.902
   54SOL    HW2  204   4.760   1.877   0.916
   55SOL     OW  205   1.790   1.008   0.924
   55SOL    HW1  206   1.762   0.997   0.831
   55SOL    HW2  207   1.705   1.025   0.968
   56SOL     OW  208   1.230   1.510   1.505
   56SOL    HW1  209   1.194   1.449   1.572
   56SOL    HW2  210   1.150   1.554   1.472
   57SOL     OW  211   0.281   0.988   0.260
   57SOL    HW1  212   0.378   0.980   0.268
   57SOL    HW2  213   0.272   0.996   0.163
   58SOL     OW  214   1.485   0.789   0.691
   58SOL    HW1  215   1.483   0.728   0.768
   58SOL    HW2  216   1.572   0.832   0.699
   59SOL     OW  217   4.836   1.266   1.723
   59SOL    HW1  218   4.789   1.272   1.637
   59SOL    HW2  219   4.760   1.250   1.783
   60SOL     OW  220   1.063   1.805   0.165
   60SOL    HW1  221   1.002   1.756   0.225
   60SOL    HW2  222   1.106   1.733   0.116
   61SOL     OW  223   4.515   0.260   1.446
   61SOL    HW1  224   4.484   0.352   1.457
   61SOL    HW2  225   4.576   0.250   1.521
   62SOL     OW  226   1.615   1.416   0.106
   62SOL    HW1  227   1.571   1.502   0.101
   62SOL    HW2  228   1.543   1.354   0.083
   63SOL     OW  229   0.442   1.751   0.327
   63SOL    HW1  230   0.492   1.802   0.394
   63SOL    HW2  231   0.515   1.701   0.285
   64SOL     OW  232   1.459   0.163   0.429
   64SOL    HW1  233   1.438   0.116   0.346
   64SOL    HW2  234   1.554   0.179   0.420
   65SOL     OW  235   4.531   1.783   1.242
   65SOL    HW1  236   4.574   1.697   1.252
   65SOL    HW2  237   4.492   1.777   1.152
   66SOL     OW  238   0.927   1.721   0.884
   66SOL    HW1  239   1.009   1.668   0.881
   66SOL    HW2  240   0.876   1.680   0.811
   67SOL     OW  241   0.414   0.665   0.517
   67SOL    HW1  242   0.445   0.574   0.536
   67SOL    HW2  243   0.318   0.651   0.506
   68SOL     OW  244   1.533   0.258   1.777
   68SOL    HW1  245   1.535   0.302   1.864
   68SOL    HW2  246   1.494   0.172   1.803
   69SOL     OW  247   0.538   0.101   0.125
   69SOL    HW1  248   0.612   0.045   0.155
   69SOL    HW2  249   0.573   0.142   0.045
   70SOL     OW  250   5.127   0.301   1.733
   70SOL    HW1  251   5.221   0.310   1.752
   70SOL    HW2  252   5.096   0.244   1.805
   71SOL     OW  253   5.185   1.506   1.236
   71SOL    HW1  254   5.163   1.470   1.148
   71SOL    HW2  255   5.243   1.436   1.270
   72SOL     OW  256   1.349   0.598   1.427
   72SOL    HW1  257   1.374   0.562   1.514
   72SOL    HW2  258   1.396   0.683   1.424
   73SOL     OW  259   0.812   1.362   1.000
   73SOL    HW1  260   0.898   1.368   0.955
   73SOL    HW2  261   0.749   1.369   0.926
   74SOL     OW  262   0.954   0.504   0.894
   74SOL    HW1  263   0.924   0.498   0.801
   74SOL    HW2  264   0.973   0.411   0.914
   75SOL     OW  265   0.625   0.072   0.466
   75SOL    HW1  266   0.550   0.050   0.525
   75SOL    HW2  267   0.594   0.155   0.426
   76SOL     OW  268   1.402   1.245   0.045
   76SOL    HW1  269   1.431   1.175   0.107
   76SOL    HW2  270   1.320   1.276   0.088
   77SOL     OW  271   0.273   0.049   0.117
   77SOL    HW1  272   0.368   0.073   0.113
   77SOL    HW2  273   0.270  -0.004   0.199
   78SOL     OW  274   0.952   0.301   0.454
   78SOL    HW1  275   0.923   0.342   0.371
   78SOL    HW2  276   1.049   0.299   0.444
   79SOL     OW  277   1.087   0.711   1.417
   79SOL    HW1  278   1.014   0.647   1.428
   79SOL    HW2  279   1.166   0.654   1.417
   80SOL     OW  280   1.172   1.615   0.838
   80SOL    HW1  281   1.203   1.672   0.765
   80SOL    HW2  282   1.217   1.655   0.915
   81SOL     OW  283   4.810   1.153   0.727
   81SOL    HW1  284   4.744   1.126   0.795
   81SOL    HW2  285   4.754   1.150   0.646
   82SOL     OW  286   1.241   1.805   0.655
   82SOL    HW1  287   1.293   1.861   0.594
   82SOL    HW2  288   1.169   1.865   0.680
   83SOL     OW  289   1.087   0.475   0.045
   83SOL    HW1  290   1.050   0.498  -0.043
   83SOL    HW2  291   1.175   0.516   0.039
   84SOL     OW  292   4.459   0.538   1.432
   84SOL    HW1  293   4.545   0.547   1.386
   84SOL    HW2  294   4.474   0.598   1.508
   85SOL     OW  295   4.937   0.267   1.216
   85SOL    HW1  296   4.970   0.247   1.305
   85SOL    HW2  297   4.840   0.257   1.227
   86SOL     OW  298   0.879   0.486   0.642
   86SOL    HW1  299   0.860   0.552   0.572
   86SOL    HW2  300   0.896   0.407   0.588
   87SOL     OW  301   1.016   0.020   0.803
   87SOL    HW1  302   0.967   0.044   0.721
   87SOL    HW2  303   0.944  -0.013   0.858
   88SOL     OW  304   1.524   1.208   0.800
   88SOL    HW1  305   1.464   1.187   0.726
   88SOL    HW2  306   1.607   1.226   0.752
   89SOL     OW  307   1.443   0.626   0.911
   89SOL    HW1  308   1.394   0.542   0.919
   89SOL    HW2  309   1.498   0.628   0.991
   90SOL     OW  310   1.869   0.818   0.357
   90SOL    HW1  311   1.911   0.775   0.434
   90SOL    HW2  312   1.841   0.741   0.305
   91SOL     OW  313   0.535   1.420   0.133
   91SOL    HW1  314   0.495   1.360   0.199
   91SOL    HW2  315   0.457   1.441   0.079
   92SOL     OW  316   1.753   1.265   0.648
   92SOL    HW1  317   1.836   1.212   0.657
   92SOL    HW2  318   1.789   1.352   0.629
   93SOL     OW  319   1.369   0.534   0.051
   93SOL    HW1  320   1.342   0.534   0.145
   93SOL    HW2  321   1.436   0.464   0.050
   94SOL     OW  322   0.517   0.290   0.326
   94SOL    HW1  323   0.519   0.223   0.255
   94SOL    HW2  324   0.495   0.369   0.273
   95SOL     OW  325   1.715   1.240   1.563
   95SOL    HW1  326   1.808   1.213   1.553
   95SOL    HW2  327   1.727   1.335   1.584
   96SOL     OW  328   1.009   1.305   1.342
   96SOL    HW1  329   0.927   1.284   1.391
   96SOL    HW2  330   1.077   1.264   1.399
   97SOL     OW  331   1.598   1.624   1.688
   97SOL    HW1  332   1.585   1.661   1.599
   97SOL    HW2  333   1.680   1.572   1.674
   98SOL     OW  334   1.170   1.277   1.127
   98SOL    HW1  335   1.103   1.293   1.196
   98SOL    HW2  336   1.123   1.305   1.045
   99SOL     OW  337   1.550   1.083   1.045
   99SOL    HW1  338   1.565   1.160   1.103
   99SOL    HW2  339   1.527   1.125   0.961
  100SOL     OW  340   5.284   0.124   1.399
  100SOL    HW1  341   5.287   0.095   1.306
  100SOL    HW2  342   5.378   0.146   1.415
  101SOL     OW  343   5.305   1.103   1.745
  101SOL    HW1  344   5.213   1.118   1.775
  101SOL    HW2  345   5.294   1.033   1.678
  102SOL     OW  346   0.754   1.072   0.422
  102SOL    HW1  347   0.739   1.028   0.508
  102SOL    HW2  348   0.836   1.027   0.391
  103SOL     OW  349   4.745   0.824   1.273
  103SOL    HW1  350   4.817   0.835   1.339
  103SOL    HW2  351   4.725   0.729   1.283
  104SOL     OW  352   1.305   0.372   1.285
  104SOL    HW1  353   1.324   0.455   1.332
  104SOL    HW2  354   1.214   0.390   1.251
  105SOL     OW  355   4.381   1.527   1.370
  105SOL    HW1  356   4.370   1.611   1.416
  105SOL    HW2  357   4.475   1.531   1.346
  106SOL     OW  358   4.636   1.139   0.510
  106SOL    HW1  359   4.666   1.187   0.431
  106SOL    HW2  360   4.612   1.053   0.472
  107SOL     OW  361   4.867   0.457   0.862
  107SOL    HW1  362   4.872   0.467   0.765
  107SOL    HW2  363   4.930   0.524   0.894
  108SOL     OW  364   1.237   1.363   0.451
  108SOL    HW1  365   1.291   1.436   0.487
  108SOL    HW2  366   1.147   1.392   0.476
  109SOL     OW  367   1.343   1.486   1.124
  109SOL    HW1  368   1.387   1.482   1.211
  109SOL    HW2  369   1.283   1.409   1.130
  110SOL     OW  370   1.503   0.652   0.455
  110SOL    HW1  371   1.491   0.711   0.531
  110SOL    HW2  372   1.456   0.700   0.385
  111SOL     OW  373   4.647   1.525   1.294
  111SOL    HW1  374   4.657   1.467   1.215
  111SOL    HW2  375   4.740   1.550   1.310
  112SOL     OW  376   4.817   0.718   1.644
  112SOL    HW1  377   4.861   0.762   1.569
  112SOL    HW2  378   4.880   0.647   1.663
  113SOL     OW  379   1.584   0.828   1.699
  113SOL    HW1  380   1.493   0.861   1.683
  113SOL    HW2  381   1.634   0.873   1.628
  114SOL     OW  382   5.310   4.306   1.631
  114SOL    HW1  383   5.291   4.357   1.551
  114SOL    HW2  384   5.224   4.303   1.676
  115SOL     OW  385   4.801   4.286   1.677
  115SOL    HW1  386   4.801   4.220   1.605
  115SOL    HW2  387   4.761   4.238   1.751
  116SOL     OW  388   4.980   0.868   1.105
  116SOL    HW1  389   4.998   0.963   1.106
  116SOL    HW2  390   4.891   0.863   1.144
  117SOL     OW  391   1.283   0.816   1.017
  117SOL    HW1  392   1.191   0.808   0.984
  117SOL    HW2  393   1.328   0.750   0.962
  118SOL     OW  394   1.265   0.530   0.294
  118SOL    HW1  395   1.257   0.457   0.357
  118SOL    HW2  396   1.208   0.599   0.334
  119SOL     OW  397   4.668   0.212   1.225
  119SOL    HW1  398   4.609   0.239   1.299
  119SOL    HW2  399   4.691   0.121   1.252
  120SOL     OW  400   4.383   1.280   1.250
  120SOL    HW1  401   4.415   1.221   1.320
  120SOL    HW2  402   4.375   1.365   1.296
  121SOL     OW  403   5.035   0.623   1.000
  121SOL    HW1  404   5.115   0.632   0.947
  121SOL    HW2  405   5.016   0.715   1.028
  122SOL     OW  406   1.752   0.982   1.865
  122SOL    HW1  407   1.691   0.919   1.824
  122SOL    HW2  408   1.697   1.018   1.937
  123SOL     OW  409   4.735   0.066   0.634
  123SOL    HW1  410   4.696   0.150   0.664
  123SOL    HW2  411   4.657   0.015   0.608
  124SOL     OW  412   1.617   0.441   0.320
  124SOL    HW1  413   1.645   0.381   0.391
  124SOL    HW2  414   1.570   0.512   0.368
  125SOL     OW  415   1.021   0.757   0.940
  125SOL    HW1  416   1.000   0.772   1.035
  125SOL    HW2  417   1.001   0.661   0.931
  126SOL     OW  418   5.330   1.603   1.707
  126SOL    HW1  419   5.323   1.625   1.612
  126SOL    HW2  420   5.344   1.507   1.704
  127SOL     OW  421   1.823   1.492   1.592
  127SOL    HW1  422   1.845   1.521   1.501
  127SOL    HW2  423   1.907   1.512   1.637
  128SOL     OW  424   4.735   0.926   1.804
  128SOL    HW1  425   4.801   0.944   1.874
  128SOL    HW2  426   4.774   0.850   1.758
  129SOL     OW  427   1.531   0.303   0.100
  129SOL    HW1  428   1.580   0.220   0.113
  129SOL    HW2  429   1.564   0.356   0.175
  130SOL     OW  430   3.459   2.953   3.058
  130SOL    HW1  431   3.492   2.862   3.070
  130SOL    HW2  432   3.481   2.969   2.964
  131SOL     OW  433   1.059   1.370   0.897
  131SOL    HW1  434   1.075   1.297   0.834
  131SOL    HW2  435   1.107   1.445   0.857
  132SOL     OW  436   4.658   0.803   0.924
  132SOL    HW1  437   4.734   0.797   0.861
  132SOL    HW2  438   4.671   0.723   0.977
  133SOL     OW  439   4.659   0.518   1.025
  133SOL    HW1  440   4.608   0.438   1.005
  133SOL    HW2  441   4.736   0.504   0.967
  134SOL     OW  442   5.484   0.363   1.654
  134SOL    HW1  443   5.434   0.397   1.730
  134SOL    HW2  444   5.567   0.413   1.660
  135SOL     OW  445   1.216   0.182   1.461
  135SOL    HW1  446   1.188   0.238   1.536
  135SOL    HW2  447   1.251   0.249   1.398
  136SOL     OW  448   0.094   1.294   0.114
  136SOL    HW1  449   0.068   1.243   0.035
  136SOL    HW2  450   0.071   1.229   0.185
  137SOL     OW  451   4.439   1.794   0.987
  137SOL    HW1  452   4.381   1.850   0.933
  137SOL    HW2  453   4.525   1.803   0.941
  138SOL     OW  454   4.820   1.561   0.931
  138SOL    HW1  455   4.888   1.629   0.950
  138SOL    HW2  456   4.871   1.497   0.878
  139SOL     OW  457   0.965   0.810   1.193
  139SOL    HW1  458   1.012   0.777   1.271
  139SOL    HW2  459   0.875   0.821   1.227
  140SOL     OW  460   4.438   0.632   1.151
  140SOL    HW1  461   4.519   0.595   1.110
  140SOL    HW2  462   4.424   0.573   1.227
  141SOL     OW  463   4.474   0.453   1.746
  141SOL    HW1  464   4.544   0.406   1.794
  141SOL    HW2  465   4.517   0.537   1.721
  142SOL     OW  466   1.335   0.939   1.626
  142SOL    HW1  467   1.375   1.029   1.631
  142SOL    HW2  468   1.243   0.961   1.605
  143SOL     OW  469   0.859   0.623   0.403
  143SOL    HW1  470   0.852   0.557   0.332
  143SOL    HW2  471   0.775   0.673   0.390
  144SOL     OW  472   1.573   0.695   1.150
  144SOL    HW1  473   1.551   0.639   1.226
  144SOL    HW2  474   1.670   0.683   1.147
  145SOL     OW  475   4.595   1.556   1.709
  145SOL    HW1  476   4.536   1.608   1.767
  145SOL    HW2  477   4.557   1.467   1.716
  146SOL     OW  478   5.118   0.469   1.208
  146SOL    HW1  479   5.054   0.395   1.208
  146SOL    HW2  480   5.086   0.523   1.133
  147SOL     OW  481   5.319   1.652   1.438
  147SOL    HW1  482   5.268   1.605   1.369
  147SOL    HW2  483   5.300   1.745   1.415
  148SOL     OW  484   4.493   1.104   1.429
  148SOL    HW1  485   4.494   1.061   1.517
  148SOL    HW2  486   4.483   1.026   1.371
  149SOL     OW  487   1.267   1.043   1.217
  149SOL    HW1  488   1.190   0.989   1.193
  149SOL    HW2  489   1.244   1.129   1.177
  150SOL     OW  490   1.344   0.826   0.277
  150SOL    HW1  491   1.258   0.806   0.318
  150SOL    HW2  492   1.324   0.815   0.183
  151SOL     OW  493   1.757   1.736   1.148
  151SOL    HW1  494   1.834   1.756   1.093
  151SOL    HW2  495   1.738   1.645   1.120
  152SOL     OW  496   1.271   1.740   1.060
  152SOL    HW1  497   1.358   1.785   1.062
  152SOL    HW2  498   1.294   1.652   1.096
  153SOL     OW  499   4.379   1.181   1.003
  153SOL    HW1  500   4.382   1.220   1.093
  153SOL    HW2  501   4.318   1.241   0.958
  154SOL     OW  502   5.072   1.674   1.771
  154SOL    HW1  503   5.038   1.714   1.689
  154SOL    HW2  504   5.167   1.663   1.751
  155SOL     OW  505   0.877   0.171   0.132
  155SOL    HW1  506   0.967   0.140   0.117
  155SOL    HW2  507   0.833   0.093   0.171
  156SOL     OW  508   1.732   0.214   0.465
  156SOL    HW1  509   1.798   0.219   0.393
  156SOL    HW2  510   1.747   0.123   0.498
  157SOL     OW  511   1.375   1.588   0.544
  157SOL    HW1  512   1.352   1.619   0.453
  157SOL    HW2  513   1.328   1.654   0.597
  158SOL     OW  514   4.444   1.725   1.865
  158SOL    HW1  515   4.405   1.656   1.923
  158SOL    HW2  516   4.510   1.767   1.923
  159SOL     OW  517   1.269   0.950   0.675
  159SOL    HW1  518   1.349   0.894   0.681
  159SOL    HW2  519   1.304   1.028   0.628
  160SOL     OW  520   5.098   1.259   1.452
  160SOL    HW1  521   5.083   1.318   1.529
  160SOL    HW2  522   5.018   1.277   1.398
  161SOL     OW  523   0.665   1.641   0.206
  161SOL    HW1  524   0.669   1.680   0.118
  161SOL    HW2  525   0.629   1.552   0.186
  162SOL     OW  526   1.616   1.712   1.414
  162SOL    HW1  527   1.662   1.720   1.329
  162SOL    HW2  528   1.635   1.799   1.455
  163SOL     OW  529   1.821   0.207   1.022
  163SOL    HW1  530   1.838   0.128   0.968
  163SOL    HW2  531   1.751   0.250   0.970
  164SOL     OW  532   4.620   0.292   0.725
  164SOL    HW1  533   4.532   0.326   0.698
  164SOL    HW2  534   4.611   0.291   0.821
  165SOL     OW  535   1.217   1.598   0.057
  165SOL    HW1  536   1.204   1.505   0.087
  165SOL    HW2  537   1.197   1.591  -0.038
  166SOL     OW  538   5.143   1.010   1.370
  166SOL    HW1  539   5.139   1.037   1.277
  166SOL    HW2  540   5.127   1.097   1.413
  167SOL     OW  541   0.977   0.956   0.327
  167SOL    HW1  542   1.003   0.955   0.233
  167SOL    HW2  543   1.027   0.880   0.362
  168SOL     OW  544   1.487   1.670   0.081
  168SOL    HW1  545   1.394   1.643   0.074
  168SOL    HW2  546   1.508   1.691  -0.012
  169SOL     OW  547   4.685   1.296   1.499
  169SOL    HW1  548   4.668   1.371   1.440
  169SOL    HW2  549   4.623   1.228   1.466
  170SOL     OW  550   1.605   1.293   1.210
  170SOL    HW1  551   1.693   1.286   1.252
  170SOL    HW2  552   1.556   1.349   1.274
  171SOL     OW  553   1.082   1.138   0.765
  171SOL    HW1  554   1.005   1.087   0.794
  171SOL    HW2  555   1.141   1.069   0.731
  172SOL     OW  556   1.058   0.243   0.970
  172SOL    HW1  557   1.055   0.183   0.894
  172SOL    HW2  558   1.037   0.179   1.041
  173SOL     OW  559   0.607   1.489   0.551
  173SOL    HW1  560   0.648   1.438   0.478
  173SOL    HW2  561   0.512   1.483   0.531
  174SOL     OW  562   1.869   0.331   1.499
  174SOL    HW1  563   1.903   0.416   1.465
  174SOL    HW2  564   1.845   0.285   1.416
  175SOL     OW  565   0.346   1.309   0.299
  175SOL    HW1  566   0.264   1.316   0.247
  175SOL    HW2  567   0.335   1.379   0.367
  176SOL     OW  568   4.506   0.982   1.678
  176SOL    HW1  569   4.461   1.047   1.734
  176SOL    HW2  570   4.592   0.972   1.725
  177SOL     OW  571   5.059   0.258   1.469
  177SOL    HW1  572   5.138   0.210   1.439
  177SOL    HW2  573   5.078   0.269   1.564
  178SOL     OW  574   6.469   2.499   3.026
  178SOL    HW1  575   6.495   2.492   2.932
  178SOL    HW2  576   6.518   2.578   3.054
  179SOL     OW  577   1.466   0.855   1.394
  179SOL    HW1  578   1.408   0.887   1.465
  179SOL    HW2  579   1.553   0.891   1.423
  180SOL     OW  580   4.414   0.206   0.443
  180SOL    HW1  581   4.467   0.237   0.366
  180SOL    HW2  582   4.463   0.129   0.474
  181SOL     OW  583   1.187   1.356   0.174
  181SOL    HW1  584   1.090   1.344   0.169
  181SOL    HW2  585   1.204   1.345   0.270
  182SOL     OW  586   4.964   0.817   1.437
  182SOL    HW1  587   5.019   0.896   1.419
  182SOL    HW2  588   5.031   0.746   1.432
  183SOL     OW  589   1.517   1.856   1.063
  183SOL    HW1  590   1.550   1.910   0.990
  183SOL    HW2  591   1.599   1.816   1.098
  184SOL     OW  592   5.039   0.554   1.674
  184SOL    HW1  593   5.103   0.607   1.726
  184SOL    HW2  594   5.059   0.463   1.702
  185SOL     OW  595   1.449   1.182   1.624
  185SOL    HW1  596   1.439   1.213   1.716
  185SOL    HW2  597   1.539   1.213   1.602
  186SOL     OW  598   4.712   1.777   1.610
  186SOL    HW1  599   4.624   1.818   1.597
  186SOL    HW2  600   4.686   1.688   1.640
  187SOL     OW  601   1.228   0.309   0.446
  187SOL    HW1  602   1.308   0.252   0.448
  187SOL    HW2  603   1.235   0.355   0.532
  188SOL     OW  604   4.853   0.775   0.741
  188SOL    HW1  605   4.920   0.838   0.710
  188SOL    HW2  606   4.817   0.741   0.658
  189SOL     OW  607   1.691   0.972   1.491
  189SOL    HW1  608   1.687   1.066   1.516
  189SOL    HW2  609   1.784   0.962   1.465
  190SOL     OW  610   0.915   1.354   0.155
  190SOL    HW1  611   0.860   1.358   0.235
  190SOL    HW2  612   0.853   1.321   0.089
  191SOL     OW  613   4.992   1.762   0.958
  191SOL    HW1  614   4.969   1.856   0.954
  191SOL    HW2  615   5.088   1.761   0.948
  192SOL     OW  616   0.876   0.991   0.882
  192SOL    HW1  617   0.923   0.908   0.900
  192SOL    HW2  618   0.838   1.013   0.968
  193SOL     OW  619   1.061   0.923   0.071
  193SOL    HW1  620   0.995   0.916  -0.001
  193SOL    HW2  621   1.137   0.873   0.037
  194SOL     OW  622   1.853   1.560   0.797
  194SOL    HW1  623   1.771   1.579   0.749
  194SOL    HW2  624   1.819   1.517   0.878
  195SOL     OW  625   4.622   1.265   1.882
  195SOL    HW1  626   4.541   1.287   1.833
  195SOL    HW2  627   4.596   1.276   1.975
  196SOL     OW  628   4.428   1.325   0.574
  196SOL    HW1  629   4.349   1.282   0.612
  196SOL    HW2  630   4.483   1.249   0.551
  197SOL     OW  631   5.046   1.420   1.657
  197SOL    HW1  632   4.964   1.375   1.686
  197SOL    HW2  633   5.041   1.506   1.701
  198SOL     OW  634   1.804   0.175   1.290
  198SOL    HW1  635   1.717   0.132   1.290
  198SOL    HW2  636   1.817   0.191   1.194
  199SOL     OW  637   0.487   0.415   0.578
  199SOL    HW1  638   0.503   0.365   0.496
  199SOL    HW2  639   0.419   0.362   0.623
  200SOL     OW  640   1.715   1.491   1.036
  200SOL    HW1  641   1.633   1.489   0.983
  200SOL    HW2  642   1.699   1.417   1.097
  201SOL     OW  643   4.694   0.559   1.302
  201SOL    HW1  644   4.748   0.500   1.359
  201SOL    HW2  645   4.710   0.523   1.213
  202SOL     OW  646   0.814   1.636   0.655
  202SOL    HW1  647   0.808   1.721   0.608
  202SOL    HW2  648   0.734   1.589   0.623
  203SOL     OW  649   1.462   0.255   1.091
  203SOL    HW1  650   1.491   0.168   1.121
  203SOL    HW2  651   1.415   0.290   1.169
  204SOL     OW  652   0.978   0.039   1.137
  204SOL    HW1  653   0.899   0.020   1.084
  204SOL    HW2  654   1.015  -0.051   1.149
  205SOL     OW  655   0.774   1.338   0.391
  205SOL    HW1  656   0.764   1.242   0.403
  205SOL    HW2  657   0.855   1.358   0.440
  206SOL     OW  658   4.927   1.562   1.326
  206SOL    HW1  659   4.939   1.626   1.398
  206SOL    HW2  660   5.017   1.560   1.288
  207SOL     OW  661   1.354   0.045   0.192
  207SOL    HW1  662   1.394   0.058   0.105
  207SOL    HW2  663   1.275   0.102   0.186
  208SOL     OW  664   1.256   0.462   0.667
  208SOL    HW1  665   1.211   0.549   0.670
  208SOL    HW2  666   1.257   0.438   0.762
  209SOL     OW  667   1.624   0.310   0.860
  209SOL    HW1  668   1.557   0.301   0.930
  209SOL    HW2  669   1.581   0.371   0.797
  210SOL     OW  670   4.367   1.100   0.291
  210SOL    HW1  671   4.452   1.052   0.288
  210SOL    HW2  672   4.305   1.029   0.313
  211SOL     OW  673   0.897   1.685   0.341
  211SOL    HW1  674   0.812   1.662   0.298
  211SOL    HW2  675   0.870   1.756   0.403
  212SOL     OW  676   4.529   0.709   2.021
  212SOL    HW1  677   4.523   0.629   2.077
  212SOL    HW2  678   4.453   0.698   1.963
  213SOL     OW  679   4.550   0.254   2.849
  213SOL    HW1  680   4.545   0.223   2.942
  213SOL    HW2  681   4.476   0.205   2.808
  214SOL     OW  682   4.363   0.405   2.570
  214SOL    HW1  683   4.330   0.454   2.648
  214SOL    HW2  684   4.283   0.404   2.513
  215SOL     OW  685   4.917   1.289   3.054
  215SOL    HW1  686   4.831   1.305   3.011
  215SOL    HW2  687   4.938   1.377   3.089
  216SOL     OW  688   5.925   1.511   2.549
  216SOL    HW1  689   5.881   1.467   2.625
  216SOL    HW2  690   5.851   1.521   2.486
  217SOL     OW  691   5.464   0.698   2.535
  217SOL    HW1  692   5.514   0.779   2.510
  217SOL    HW2  693   5.423   0.725   2.618
  218SOL     OW  694   1.827   0.592   2.056
  218SOL    HW1  695   1.765   0.609   1.981
  218SOL    HW2  696   1.773   0.535   2.114
  219SOL     OW  697   5.074   1.121   2.900
  219SOL    HW1  698   5.013   1.157   2.967
  219SOL    HW2  699   5.115   1.204   2.871
  220SOL     OW  700   5.005   0.957   2.516
  220SOL    HW1  701   5.081   0.971   2.575
  220SOL    HW2  702   4.946   1.032   2.539
  221SOL     OW  703   4.688   1.394   2.942
  221SOL    HW1  704   4.595   1.380   2.920
  221SOL    HW2  705   4.721   1.452   2.871
  222SOL     OW  706   3.631   3.687   0.113
  222SOL    HW1  707   3.702   3.749   0.137
  222SOL    HW2  708   3.558   3.718   0.169
  223SOL     OW  709   5.891   0.505   2.574
  223SOL    HW1  710   5.803   0.480   2.539
  223SOL    HW2  711   5.885   0.601   2.570
  224SOL     OW  712   4.607   1.710   2.338
  224SOL    HW1  713   4.622   1.791   2.389
  224SOL    HW2  714   4.673   1.719   2.267
  225SOL     OW  715   4.679   1.455   2.382
  225SOL    HW1  716   4.654   1.549   2.375
  225SOL    HW2  717   4.608   1.419   2.437
  226SOL     OW  718   4.594   1.059   2.678
  226SOL    HW1  719   4.620   0.975   2.721
  226SOL    HW2  720   4.528   1.095   2.740
  227SOL     OW  721   2.769   3.982   0.175
  227SOL    HW1  722   2.767   3.941   0.263
  227SOL    HW2  723   2.794   4.072   0.199
  228SOL     OW  724   4.909   0.977   2.022
  228SOL    HW1  725   4.964   1.030   1.961
  228SOL    HW2  726   4.945   1.004   2.108
  229SOL     OW  727   3.719   2.170   0.380
  229SOL    HW1  728   3.704   2.261   0.347
  229SOL    HW2  729   3.808   2.151   0.349
  230SOL     OW  730   4.480   0.610   2.429
  230SOL    HW1  731   4.445   0.534   2.477
  230SOL    HW2  732   4.457   0.682   2.490
  231SOL     OW  733   1.851   1.724   2.197
  231SOL    HW1  734   1.933   1.719   2.250
  231SOL    HW2  735   1.851   1.818   2.173
  232SOL     OW  736   4.352   1.532   2.025
  232SOL    HW1  737   4.335   1.437   2.034
  232SOL    HW2  738   4.352   1.559   2.119
  233SOL     OW  739   6.043   0.954   2.529
  233SOL    HW1  740   6.135   0.927   2.522
  233SOL    HW2  741   6.030   1.009   2.450
  234SOL     OW  742   1.675   1.118   2.300
  234SOL    HW1  743   1.758   1.103   2.251
  234SOL    HW2  744   1.702   1.192   2.359
  235SOL     OW  745   4.975   1.363   2.651
  235SOL    HW1  746   4.923   1.283   2.630
  235SOL    HW2  747   4.979   1.407   2.564
  236SOL     OW  748   3.458   3.403   0.175
  236SOL    HW1  749   3.444   3.321   0.125
  236SOL    HW2  750   3.553   3.415   0.163
  237SOL     OW  751   5.208   0.080   2.456
  237SOL    HW1  752   5.237   0.154   2.400
  237SOL    HW2  753   5.119   0.060   2.422
  238SOL     OW  754   2.357   3.120   0.067
  238SOL    HW1  755   2.425   3.064   0.027
  238SOL    HW2  756   2.276   3.066   0.059
  239SOL     OW  757   1.554   1.062   2.056
  239SOL    HW1  758   1.483   1.002   2.086
  239SOL    HW2  759   1.594   1.087   2.142
  240SOL     OW  760   5.825   1.378   2.769
  240SOL    HW1  761   5.754   1.408   2.830
  240SOL    HW2  762   5.795   1.288   2.747
  241SOL     OW  763   5.948   1.853   2.401
  241SOL    HW1  764   5.940   1.787   2.330
  241SOL    HW2  765   5.969   1.799   2.478
  242SOL     OW  766   4.898   0.700   2.137
  242SOL    HW1  767   4.900   0.788   2.098
  242SOL    HW2  768   4.841   0.713   2.216
  243SOL     OW  769   5.606   0.423   2.791
  243SOL    HW1  770   5.519   0.383   2.810
  243SOL    HW2  771   5.664   0.367   2.845
  244SOL     OW  772   1.585   1.670   2.196
  244SOL    HW1  773   1.682   1.673   2.189
  244SOL    HW2  774   1.557   1.660   2.103
  245SOL     OW  775   2.992   2.609   0.237
  245SOL    HW1  776   2.960   2.587   0.327
  245SOL    HW2  777   2.914   2.590   0.182
  246SOL     OW  778   3.209   2.570   0.071
  246SOL    HW1  779   3.143   2.585   0.141
  246SOL    HW2  780   3.161   2.593  -0.009
  247SOL     OW  781   5.360   0.673   2.280
  247SOL    HW1  782   5.386   0.672   2.374
  247SOL    HW2  783   5.270   0.635   2.283
  248SOL     OW  784   4.427   0.749   2.671
  248SOL    HW1  785   4.517   0.765   2.707
  248SOL    HW2  786   4.374   0.811   2.724
  249SOL     OW  787   5.178   0.355   2.067
  249SOL    HW1  788   5.230   0.395   1.995
  249SOL    HW2  789   5.142   0.275   2.024
  250SOL     OW  790   5.732   1.148   2.417
  250SOL    HW1  791   5.818   1.152   2.372
  250SOL    HW2  792   5.680   1.213   2.366
  251SOL     OW  793   4.933   0.250   2.778
  251SOL    HW1  794   4.884   0.240   2.862
  251SOL    HW2  795   4.905   0.338   2.749
  252SOL     OW  796   5.339   1.451   2.336
  252SOL    HW1  797   5.315   1.524   2.277
  252SOL    HW2  798   5.318   1.489   2.423
  253SOL     OW  799   4.716   1.806   2.729
  253SOL    HW1  800   4.751   1.715   2.741
  253SOL    HW2  801   4.795   1.861   2.745
  254SOL     OW  802   6.135   1.058   2.772
  254SOL    HW1  803   6.087   1.044   2.689
  254SOL    HW2  804   6.063   1.058   2.837
  255SOL     OW  805   3.405   3.739   0.267
  255SOL    HW1  806   3.443   3.676   0.331
  255SOL    HW2  807   3.338   3.684   0.222
  256SOL     OW  808   4.636   0.938   2.122
  256SOL    HW1  809   4.712   0.956   2.066
  256SOL    HW2  810   4.601   0.855   2.084
  257SOL     OW  811   5.838   0.781   2.570
  257SOL    HW1  812   5.816   0.763   2.664
  257SOL    HW2  813   5.910   0.847   2.577
  258SOL     OW  814   5.498   1.772   2.091
  258SOL    HW1  815   5.416   1.740   2.132
  258SOL    HW2  816   5.512   1.707   2.020
  259SOL     OW  817   1.638   1.390   1.953
  259SOL    HW1  818   1.603   1.480   1.948
  259SOL    HW2  819   1.563   1.337   1.924
  260SOL     OW  820   4.825   1.737   2.173
  260SOL    HW1  821   4.875   1.793   2.235
  260SOL    HW2  822   4.895   1.685   2.131
  261SOL     OW  823   5.779   0.174   2.248
  261SOL    HW1  824   5.835   0.112   2.199
  261SOL    HW2  825   5.799   0.152   2.340
  262SOL     OW  826   2.381   3.932   0.089
  262SOL    HW1  827   2.446   3.859   0.091
  262SOL    HW2  828   2.359   3.938  -0.007
  263SOL     OW  829   5.311   1.715   2.761
  263SOL    HW1  830   5.401   1.686   2.784
  263SOL    HW2  831   5.287   1.654   2.689
  264SOL     OW  832   4.742   0.667   2.360
  264SOL    HW1  833   4.767   0.573   2.372
  264SOL    HW2  834   4.646   0.663   2.374
  265SOL     OW  835   5.066   0.131   1.950
  265SOL    HW1  836   5.072   0.064   2.021
  265SOL    HW2  837   5.059   0.071   1.873
  266SOL     OW  838   5.219   1.529   3.062
  266SOL    HW1  839   5.209   1.480   2.979
  266SOL    HW2  840   5.292   1.481   3.106
  267SOL     OW  841   3.527   2.786   0.211
  267SOL    HW1  842   3.602   2.763   0.270
  267SOL    HW2  843   3.541   2.882   0.201
  268SOL     OW  844   5.183   1.367   2.836
  268SOL    HW1  845   5.261   1.362   2.776
  268SOL    HW2  846   5.110   1.377   2.772
  269SOL     OW  847   5.258   0.521   2.761
  269SOL    HW1  848   5.235   0.507   2.667
  269SOL    HW2  849   5.296   0.434   2.785
  270SOL     OW  850   4.956   0.035   2.357
  270SOL    HW1  851   4.885   0.028   2.424
  270SOL    HW2  852   4.922   0.106   2.299
  271SOL     OW  853   1.418   1.234   1.890
  271SOL    HW1  854   1.459   1.170   1.951
  271SOL    HW2  855   1.335   1.256   1.934
  272SOL     OW  856   4.697   0.083   2.046
  272SOL    HW1  857   4.770   0.124   2.094
  272SOL    HW2  858   4.635   0.062   2.119
  273SOL     OW  859   5.295   0.293   2.311
  273SOL    HW1  860   5.258   0.315   2.223
  273SOL    HW2  861   5.390   0.307   2.297
  274SOL     OW  862   3.268   2.878   0.215
  274SOL    HW1  863   3.264   2.907   0.307
  274SOL    HW2  864   3.353   2.832   0.211
  275SOL     OW  865   5.516   1.561   2.597
  275SOL    HW1  866   5.534   1.629   2.531
  275SOL    HW2  867   5.555   1.601   2.677
  276SOL     OW  868   4.821   1.155   2.556
  276SOL    HW1  869   4.742   1.127   2.606
  276SOL    HW2  870   4.786   1.152   2.465
  277SOL     OW  871   5.571   1.790   2.454
  277SOL    HW1  872   5.616   1.860   2.403
  277SOL    HW2  873   5.510   1.844   2.508
  278SOL     OW  874   5.339   0.469   1.868
  278SOL    HW1  875   5.307   0.556   1.838
  278SOL    HW2  876   5.396   0.494   1.944
  279SOL     OW  877   2.288   2.671   0.208
  279SOL    HW1  878   2.381   2.694   0.213
  279SOL    HW2  879   2.266   2.644   0.299
  280SOL     OW  880   4.826   0.209   3.026
  280SOL    HW1  881   4.853   0.124   3.063
  280SOL    HW2  882   4.731   0.213   3.050
  281SOL     OW  883   5.201   0.472   2.502
  281SOL    HW1  884   5.145   0.516   2.435
  281SOL    HW2  885   5.237   0.399   2.450
  282SOL     OW  886   5.319   0.056   2.693
  282SOL    HW1  887   5.279   0.067   2.604
  282SOL    HW2  888   5.382  -0.015   2.678
  283SOL     OW  889   5.741   1.124   2.713
  283SOL    HW1  890   5.679   1.053   2.737
  283SOL    HW2  891   5.729   1.131   2.617
  284SOL     OW  892   5.754   0.677   2.815
  284SOL    HW1  893   5.705   0.592   2.812
  284SOL    HW2  894   5.822   0.660   2.884
  285SOL     OW  895   1.843   0.803   2.230
  285SOL    HW1  896   1.903   0.765   2.297
  285SOL    HW2  897   1.842   0.733   2.162
  286SOL     OW  898   4.829   1.433   2.005
  286SOL    HW1  899   4.766   1.400   2.071
  286SOL    HW2  900   4.788   1.400   1.924
  287SOL     OW  901   1.763   1.298   2.469
  287SOL    HW1  902   1.854   1.301   2.504
  287SOL    HW2  903   1.723   1.380   2.502
  288SOL     OW  904   1.357   0.566   1.918
  288SOL    HW1  905   1.283   0.555   1.982
  288SOL    HW2  906   1.425   0.511   1.960
  289SOL     OW  907   4.886   0.233   2.175
  289SOL    HW1  908   4.958   0.225   2.111
  289SOL    HW2  909   4.847   0.319   2.149
  290SOL     OW  910   3.235   3.557   0.159
  290SOL    HW1  911   3.160   3.512   0.204
  290SOL    HW2  912   3.307   3.491   0.166
  291SOL     OW  913   5.450   1.238   2.949
  291SOL    HW1  914   5.358   1.254   2.974
  291SOL    HW2  915   5.450   1.266   2.856
  292SOL     OW  916   5.912   1.070   2.930
  292SOL    HW1  917   5.890   1.139   2.996
  292SOL    HW2  918   5.847   1.088   2.860
  293SOL     OW  919   3.114   2.262   0.235
  293SOL    HW1  920   3.114   2.258   0.137
  293SOL    HW2  921   3.203   2.301   0.251
  294SOL     OW  922   5.044   1.040   2.254
  294SOL    HW1  923   5.023   1.004   2.342
  294SOL    HW2  924   5.129   0.995   2.234
  295SOL     OW  925   4.753   0.807   3.055
  295SOL    HW1  926   4.805   0.856   3.121
  295SOL    HW2  927   4.738   0.723   3.102
  296SOL     OW  928   3.472   2.547   0.102
  296SOL    HW1  929   3.494   2.635   0.137
  296SOL    HW2  930   3.376   2.558   0.083
  297SOL     OW  931   2.205   3.714   0.141
  297SOL    HW1  932   2.261   3.794   0.132
  297SOL    HW2  933   2.247   3.669   0.216
  298SOL     OW  934   4.709   1.126   2.312
  298SOL    HW1  935   4.678   1.196   2.252
  298SOL    HW2  936   4.689   1.046   2.259
  299SOL     OW  937   4.858   0.520   2.761
  299SOL    HW1  938   4.856   0.587   2.691
  299SOL    HW2  939   4.934   0.548   2.814
  300SOL     OW  940   5.583   1.348   2.266
  300SOL    HW1  941   5.637   1.423   2.298
  300SOL    HW2  942   5.495   1.372   2.301
  301SOL     OW  943   5.643   1.450   2.959
  301SOL    HW1  944   5.694   1.467   3.040
  301SOL    HW2  945   5.583   1.378   2.985
  302SOL     OW  946   5.941   0.680   2.328
  302SOL    HW1  947   5.894   0.727   2.399
  302SOL    HW2  948   6.005   0.746   2.297
  303SOL     OW  949   2.528   3.702   0.106
  303SOL    HW1  950   2.520   3.647   0.025
  303SOL    HW2  951   2.625   3.711   0.112
  304SOL     OW  952   5.001   0.852   2.912
  304SOL    HW1  953   5.029   0.946   2.910
  304SOL    HW2  954   4.914   0.858   2.955
  305SOL     OW  955   5.605   0.903   2.816
  305SOL    HW1  956   5.516   0.865   2.803
  305SOL    HW2  957   5.661   0.822   2.818
  306SOL     OW  958   5.485   0.526   2.091
  306SOL    HW1  959   5.517   0.459   2.155
  306SOL    HW2  960   5.442   0.590   2.153
  307SOL     OW  961   2.403   2.364   0.056
  307SOL    HW1  962   2.325   2.391   0.108
  307SOL    HW2  963   2.420   2.275   0.093
  308SOL     OW  964   4.408   1.355   2.996
  308SOL    HW1  965   4.420   1.292   3.069
  308SOL    HW2  966   4.380   1.434   3.046
  309SOL     OW  967   5.061   0.592   2.932
  309SOL    HW1  968   5.135   0.571   2.871
  309SOL    HW2  969   5.048   0.689   2.916
  310SOL     OW  970   4.746   0.047   2.540
  310SOL    HW1  971   4.720   0.139   2.559
  310SOL    HW2  972   4.659   0.006   2.525
  311SOL     OW  973   1.674   0.443   2.218
  311SOL    HW1  974   1.707   0.382   2.287
  311SOL    HW2  975   1.644   0.520   2.271
  312SOL     OW  976   5.360   0.772   2.796
  312SOL    HW1  977   5.344   0.788   2.892
  312SOL    HW2  978   5.326   0.681   2.787
  313SOL     OW  979   1.504   0.356   2.032
  313SOL    HW1  980   1.462   0.294   2.094
  313SOL    HW2  981   1.572   0.394   2.091
  314SOL     OW  982   5.608   0.825   1.881
  314SOL    HW1  983   5.646   0.736   1.887
  314SOL    HW2  984   5.638   0.856   1.794
  315SOL     OW  985   5.411   1.334   2.698
  315SOL    HW1  986   5.422   1.259   2.635
  315SOL    HW2  987   5.453   1.408   2.650
  316SOL     OW  988   4.667   0.819   2.785
  316SOL    HW1  989   4.742   0.789   2.729
  316SOL    HW2  990   4.701   0.807   2.875
  317SOL     OW  991   4.663   0.482   2.946
  317SOL    HW1  992   4.624   0.400   2.910
  317SOL    HW2  993   4.729   0.503   2.876
  318SOL     OW  994   3.363   2.357   0.277
  318SOL    HW1  995   3.389   2.410   0.354
  318SOL    HW2  996   3.396   2.413   0.204
  319SOL     OW  997   4.313   1.271   2.115
  319SOL    HW1  998   4.218   1.283   2.132
  319SOL    HW2  999   4.326   1.178   2.138
  320SOL     OW 1000   4.492   1.802   2.889
  320SOL    HW1 1001   4.423   1.848   2.839
  320SOL    HW2 1002   4.567   1.802   2.827
  321SOL     OW 1003   4.834   1.562   2.778
  321SOL    HW1 1004   4.910   1.617   2.805
  321SOL    HW2 1005   4.881   1.489   2.732
  322SOL     OW 1006   5.309   0.808   3.057
  322SOL    HW1 1007   5.366   0.777   3.131
  322SOL    HW2 1008   5.222   0.802   3.099
  323SOL     OW 1009   4.404   0.546   3.002
  323SOL    HW1 1010   4.499   0.533   2.984
  323SOL    HW2 1011   4.400   0.534   3.098
  324SOL     OW 1012   5.113   0.563   2.248
  324SOL    HW1 1013   5.121   0.490   2.183
  324SOL    HW2 1014   5.038   0.614   2.212
  325SOL     OW 1015   5.950   0.632   3.002
  325SOL    HW1 1016   5.949   0.561   3.069
  325SOL    HW2 1017   6.044   0.631   2.976
  326SOL     OW 1018   2.787   2.590   0.061
  326SOL    HW1 1019   2.745   2.511   0.022
  326SOL    HW2 1020   2.820   2.637  -0.018
  327SOL     OW 1021   3.072   3.874   0.216
  327SOL    HW1 1022   3.064   3.827   0.132
  327SOL    HW2 1023   3.065   3.967   0.191
  328SOL     OW 1024   4.770   0.459   2.080
  328SOL    HW1 1025   4.815   0.545   2.089
  328SOL    HW2 1026   4.684   0.477   2.122
  329SOL     OW 1027   2.281   3.361   0.150
  329SOL    HW1 1028   2.222   3.329   0.221
  329SOL    HW2 1029   2.318   3.276   0.117
  330SOL     OW 1030   5.596   1.035   3.057
  330SOL    HW1 1031   5.608   0.979   2.978
  330SOL    HW2 1032   5.541   1.107   3.018
  331SOL     OW 1033   5.679   0.912   2.136
  331SOL    HW1 1034   5.615   0.884   2.202
  331SOL    HW2 1035   5.643   0.877   2.053
  332SOL     OW 1036   6.063   1.727   2.988
  332SOL    HW1 1037   6.144   1.760   2.944
  332SOL    HW2 1038   6.065   1.633   2.963
  333SOL     OW 1039   5.582   1.682   2.831
  333SOL    HW1 1040   5.660   1.738   2.847
  333SOL    HW2 1041   5.604   1.603   2.884
  334SOL     OW 1042   4.376   1.159   2.810
  334SOL    HW1 1043   4.381   1.233   2.874
  334SOL    HW2 1044   4.308   1.190   2.747
  335SOL     OW 1045   1.796   0.252   2.382
  335SOL    HW1 1046   1.817   0.199   2.303
  335SOL    HW2 1047   1.834   0.197   2.453
  336SOL     OW 1048   5.725   1.567   2.359
  336SOL    HW1 1049   5.790   1.604   2.295
  336SOL    HW2 1050   5.671   1.645   2.381
  337SOL     OW 1051   5.615   0.912   2.471
  337SOL    HW1 1052   5.695   0.864   2.500
  337SOL    HW2 1053   5.654   0.997   2.442
  338SOL     OW 1054   3.004   3.450   0.257
  338SOL    HW1 1055   2.965   3.410   0.337
  338SOL    HW2 1056   2.934   3.512   0.230
  339SOL     OW 1057   5.031   1.607   2.032
  339SOL    HW1 1058   5.037   1.639   1.940
  339SOL    HW2 1059   4.961   1.538   2.024
  340SOL     OW 1060   3.831   3.859   0.198
  340SOL    HW1 1061   3.867   3.878   0.110
  340SOL    HW2 1062   3.842   3.945   0.244
  341SOL     OW 1063   6.165   0.194   2.836
  341SOL    HW1 1064   6.202   0.153   2.755
  341SOL    HW2 1065   6.081   0.231   2.800
  342SOL     OW 1066   4.631   0.295   2.589
  342SOL    HW1 1067   4.548   0.338   2.567
  342SOL    HW2 1068   4.622   0.285   2.686
  343SOL     OW 1069   5.548   1.591   1.895
  343SOL    HW1 1070   5.529   1.501   1.926
  343SOL    HW2 1071   5.479   1.605   1.827
  344SOL     OW 1072   2.993   3.206   0.131
  344SOL    HW1 1073   3.077   3.186   0.089
  344SOL    HW2 1074   3.007   3.294   0.170
  345SOL     OW 1075   5.270   0.916   2.191
  345SOL    HW1 1076   5.299   0.916   2.098
  345SOL    HW2 1077   5.308   0.833   2.224
  346SOL     OW 1078   1.488   1.648   1.935
  346SOL    HW1 1079   1.395   1.628   1.916
  346SOL    HW2 1080   1.527   1.649   1.845
  347SOL     OW 1081   2.410   3.544   0.298
  347SOL    HW1 1082   2.460   3.601   0.238
  347SOL    HW2 1083   2.370   3.478   0.238
  348SOL     OW 1084   3.718   3.434   0.059
  348SOL    HW1 1085   3.815   3.437   0.062
  348SOL    HW2 1086   3.695   3.528   0.077
  349SOL     OW 1087   5.421   1.104   2.559
  349SOL    HW1 1088   5.343   1.060   2.596
  349SOL    HW2 1089   5.471   1.031   2.520
  350SOL     OW 1090   5.369   0.280   2.844
  350SOL    HW1 1091   5.354   0.208   2.779
  350SOL    HW2 1092   5.352   0.232   2.927
  351SOL     OW 1093   4.963   1.482   2.406
  351SOL    HW1 1094   5.001   1.426   2.336
  351SOL    HW2 1095   4.867   1.473   2.390
  352SOL     OW 1096   3.856   2.599   0.128
  352SOL    HW1 1097   3.946   2.634   0.142
  352SOL    HW2 1098   3.875   2.508   0.098
  353SOL     OW 1099   4.592   1.327   2.152
  353SOL    HW1 1100   4.495   1.325   2.153
  353SOL    HW2 1101   4.612   1.383   2.229
  354SOL     OW 1102   2.859   2.312   0.296
  354SOL    HW1 1103   2.952   2.296   0.269
  354SOL    HW2 1104   2.872   2.386   0.359
  355SOL     OW 1105   4.209   0.455   1.760
  355SOL    HW1 1106   4.203   0.511   1.840
  355SOL    HW2 1107   4.307   0.443   1.756
  356SOL     OW 1108   3.562   3.055   0.198
  356SOL    HW1 1109   3.509   3.106   0.134
  356SOL    HW2 1110   3.652   3.065   0.162
  357SOL     OW 1111   4.386   0.214   2.156
  357SOL    HW1 1112   4.365   0.174   2.070
  357SOL    HW2 1113   4.448   0.148   2.194
  358SOL     OW 1114   5.492   1.337   1.993
  358SOL    HW1 1115   5.395   1.329   2.002
  358SOL    HW2 1116   5.521   1.333   2.087
  359SOL     OW 1117   2.767   3.070   0.171
  359SOL    HW1 1118   2.839   3.135   0.155
  359SOL    HW2 1119   2.819   2.988   0.170
  360SOL     OW 1120   5.828   1.816   2.873
  360SOL    HW1 1121   5.858   1.894   2.821
  360SOL    HW2 1122   5.913   1.775   2.898
  361SOL     OW 1123   3.804   3.050   0.067
  361SOL    HW1 1124   3.800   2.964   0.020
  361SOL    HW2 1125   3.794   3.113  -0.007
  362SOL     OW 1126   5.565   0.349   2.281
  362SOL    HW1 1127   5.636   0.283   2.270
  362SOL    HW2 1128   5.588   0.389   2.367
  363SOL     OW 1129   4.856   0.740   2.598
  363SOL    HW1 1130   4.917   0.812   2.573
  363SOL    HW2 1131   4.816   0.719   2.511
  364SOL     OW 1132   3.974   3.067   0.293
  364SOL    HW1 1133   3.951   3.155   0.328
  364SOL    HW2 1134   3.927   3.066   0.208
  365SOL     OW 1135   5.203   1.360   1.997
  365SOL    HW1 1136   5.163   1.339   2.084
  365SOL    HW2 1137   5.171   1.451   1.984
  366SOL     OW 1138   5.037   1.734   2.819
  366SOL    HW1 1139   5.017   1.824   2.789
  366SOL    HW2 1140   5.133   1.729   2.810
  367SOL     OW 1141   5.211   0.987   2.695
  367SOL    HW1 1142   5.254   0.910   2.735
  367SOL    HW2 1143   5.166   1.028   2.770
  368SOL     OW 1144   5.357   0.908   1.935
  368SOL    HW1 1145   5.348   0.990   1.882
  368SOL    HW2 1146   5.450   0.883   1.918
  369SOL     OW 1147   6.144   1.611   2.675
  369SOL    HW1 1148   6.071   1.585   2.616
  369SOL    HW2 1149   6.126   1.554   2.753
  370SOL     OW 1150   4.428   1.361   2.471
  370SOL    HW1 1151   4.352   1.360   2.532
  370SOL    HW2 1152   4.437   1.266   2.452
  371SOL     OW 1153   3.927   2.348   0.037
  371SOL    HW1 1154   3.865   2.274   0.029
  371SOL    HW2 1155   3.961   2.354  -0.055
  372SOL     OW 1156   4.795   0.409   2.401
  372SOL    HW1 1157   4.839   0.335   2.359
  372SOL    HW2 1158   4.746   0.366   2.474
  373SOL     OW 1159   6.053   1.471   2.891
  373SOL    HW1 1160   5.973   1.431   2.851
  373SOL    HW2 1161   6.083   1.401   2.951
  374SOL     OW 1162   2.559   2.729   0.136
  374SOL    HW1 1163   2.648   2.690   0.135
  374SOL    HW2 1164   2.525   2.695   0.051
  375SOL     OW 1165   5.188   1.619   2.517
  375SOL    HW1 1166   5.186   1.705   2.473
  375SOL    HW2 1167   5.106   1.578   2.487
  376SOL     OW 1168   5.766   0.274   2.952
  376SOL    HW1 1169   5.788   0.185   2.983
  376SOL    HW2 1170   5.727   0.314   3.032
  377SOL     OW 1171   5.274   0.075   3.024
  377SOL    HW1 1172   5.195   0.062   2.969
  377SOL    HW2 1173   5.316  -0.012   3.019
  378SOL     OW 1174   5.103   1.308   2.244
  378SOL    HW1 1175   5.079   1.213   2.251
  378SOL    HW2 1176   5.186   1.313   2.292
  379SOL     OW 1177   2.799   3.719   0.087
  379SOL    HW1 1178   2.793   3.814   0.108
  379SOL    HW2 1179   2.890   3.714   0.051
  380SOL     OW 1180   1.429   0.030   1.894
  380SOL    HW1 1181   1.495   0.017   1.965
  380SOL    HW2 1182   1.346   0.023   1.943
  381SOL     OW 1183   5.620   0.471   2.521
  381SOL    HW1 1184   5.563   0.551   2.518
  381SOL    HW2 1185   5.611   0.446   2.615
  382SOL     OW 1186   5.936   0.292   2.735
  382SOL    HW1 1187   5.875   0.299   2.811
  382SOL    HW2 1188   5.922   0.376   2.687
  383SOL     OW 1189   4.386   1.019   2.210
  383SOL    HW1 1190   4.475   0.993   2.179
  383SOL    HW2 1191   4.402   1.039   2.304
  384SOL     OW 1192   5.255   1.671   2.190
  384SOL    HW1 1193   5.173   1.653   2.140
  384SOL    HW2 1194   5.228   1.741   2.251
  385SOL     OW 1195   0.247   2.620   0.113
  385SOL    HW1 1196   0.249   2.533   0.160
  385SOL    HW2 1197   0.300   2.603   0.034
  386SOL     OW 1198   4.537   2.132   1.027
  386SOL    HW1 1199   4.582   2.091   1.104
  386SOL    HW2 1200   4.444   2.119   1.053
  387SOL     OW 1201   4.313   2.200   0.721
  387SOL    HW1 1202   4.263   2.280   0.746
  387SOL    HW2 1203   4.273   2.172   0.636
  388SOL     OW 1204   4.839   3.088   1.223
  388SOL    HW1 1205   4.787   3.150   1.170
  388SOL    HW2 1206   4.816   3.115   1.314
  389SOL     OW 1207   1.575   3.356   0.724
  389SOL    HW1 1208   1.525   3.326   0.802
  389SOL    HW2 1209   1.505   3.357   0.656
  390SOL     OW 1210   1.145   2.569   0.679
  390SOL    HW1 1211   1.188   2.656   0.667
  390SOL    HW2 1212   1.099   2.583   0.763
  391SOL     OW 1213   1.733   2.514   0.225
  391SOL    HW1 1214   1.651   2.563   0.211
  391SOL    HW2 1215   1.701   2.430   0.262
  392SOL     OW 1216   5.042   2.970   1.097
  392SOL    HW1 1217   4.964   3.007   1.144
  392SOL    HW2 1218   5.076   3.050   1.054
  393SOL     OW 1219   5.246   2.577   1.778
  393SOL    HW1 1220   5.269   2.643   1.847
  393SOL    HW2 1221   5.247   2.633   1.699
  394SOL     OW 1222   0.704   2.821   0.673
  394SOL    HW1 1223   0.768   2.834   0.746
  394SOL    HW2 1224   0.629   2.878   0.701
  395SOL     OW 1225   5.077   3.016   1.867
  395SOL    HW1 1226   5.139   3.076   1.911
  395SOL    HW2 1227   5.035   3.074   1.802
  396SOL     OW 1228   4.688   3.253   1.057
  396SOL    HW1 1229   4.645   3.195   0.993
  396SOL    HW2 1230   4.738   3.314   0.998
  397SOL     OW 1231   1.436   3.497   1.373
  397SOL    HW1 1232   1.513   3.509   1.430
  397SOL    HW2 1233   1.367   3.472   1.438
  398SOL     OW 1234   4.795   2.231   1.459
  398SOL    HW1 1235   4.869   2.189   1.504
  398SOL    HW2 1236   4.718   2.181   1.493
  399SOL     OW 1237   1.565   2.305   0.749
  399SOL    HW1 1238   1.486   2.306   0.691
  399SOL    HW2 1239   1.549   2.384   0.803
  400SOL     OW 1240   4.505   3.576   0.472
  400SOL    HW1 1241   4.460   3.655   0.509
  400SOL    HW2 1242   4.588   3.613   0.440
  401SOL     OW 1243   5.483   3.187   1.701
  401SOL    HW1 1244   5.535   3.157   1.777
  401SOL    HW2 1245   5.423   3.111   1.689
  402SOL     OW 1246   4.612   3.329   0.489
  402SOL    HW1 1247   4.572   3.418   0.490
  402SOL    HW2 1248   4.559   3.282   0.556
  403SOL     OW 1249   4.597   2.895   0.867
  403SOL    HW1 1250   4.616   2.804   0.899
  403SOL    HW2 1251   4.531   2.927   0.930
  404SOL     OW 1252   4.894   3.742   1.360
  404SOL    HW1 1253   4.826   3.710   1.422
  404SOL    HW2 1254   4.948   3.800   1.418
  405SOL     OW 1255   0.571   2.835   0.251
  405SOL    HW1 1256   0.607   2.868   0.168
  405SOL    HW2 1257   0.632   2.874   0.317
  406SOL     OW 1258   1.682   1.952   1.530
  406SOL    HW1 1259   1.712   2.033   1.485
  406SOL    HW2 1260   1.618   1.988   1.593
  407SOL     OW 1261   4.476   2.422   0.514
  407SOL    HW1 1262   4.399   2.365   0.521
  407SOL    HW2 1263   4.465   2.478   0.594
  408SOL     OW 1264   1.843   3.545   0.293
  408SOL    HW1 1265   1.907   3.562   0.365
  408SOL    HW2 1266   1.861   3.620   0.234
  409SOL     OW 1267   4.213   3.369   0.134
  409SOL    HW1 1268   4.239   3.300   0.197
  409SOL    HW2 1269   4.272   3.442   0.155
  410SOL     OW 1270   1.721   2.767   0.694
  410SOL    HW1 1271   1.806   2.722   0.686
  410SOL    HW2 1272   1.715   2.816   0.609
  411SOL     OW 1273   1.713   2.911   0.466
  411SOL    HW1 1274   1.802   2.918   0.428
  411SOL    HW2 1275   1.704   2.999   0.509
  412SOL     OW 1276   4.450   2.673   1.553
  412SOL    HW1 1277   4.479   2.710   1.468
  412SOL    HW2 1278   4.465   2.750   1.611
  413SOL     OW 1279   0.619   3.217   0.727
  413SOL    HW1 1280   0.579   3.128   0.738
  413SOL    HW2 1281   0.596   3.235   0.633
  414SOL     OW 1282   1.423   3.069   1.361
  414SOL    HW1 1283   1.356   3.012   1.319
  414SOL    HW2 1284   1.415   3.049   1.455
  415SOL     OW 1285   0.827   1.884   0.523
  415SOL    HW1 1286   0.860   1.967   0.484
  415SOL    HW2 1287   0.730   1.899   0.522
  416SOL     OW 1288   4.520   2.777   1.309
  416SOL    HW1 1289   4.614   2.750   1.297
  416SOL    HW2 1290   4.488   2.774   1.218
  417SOL     OW 1291   1.568   2.808   0.261
  417SOL    HW1 1292   1.495   2.760   0.303
  417SOL    HW2 1293   1.618   2.842   0.338
  418SOL     OW 1294   1.264   3.744   1.659
  418SOL    HW1 1295   1.234   3.782   1.574
  418SOL    HW2 1296   1.258   3.649   1.642
  419SOL     OW 1297   4.769   2.168   1.812
  419SOL    HW1 1298   4.792   2.236   1.878
  419SOL    HW2 1299   4.677   2.193   1.789
  420SOL     OW 1300   1.447   3.275   0.952
  420SOL    HW1 1301   1.382   3.297   1.022
  420SOL    HW2 1302   1.423   3.182   0.931
  421SOL     OW 1303   1.630   3.613   0.605
  421SOL    HW1 1304   1.617   3.572   0.518
  421SOL    HW2 1305   1.617   3.538   0.664
  422SOL     OW 1306   0.611   2.576   0.341
  422SOL    HW1 1307   0.599   2.667   0.311
  422SOL    HW2 1308   0.546   2.569   0.414
  423SOL     OW 1309   1.275   2.289   0.948
  423SOL    HW1 1310   1.188   2.246   0.955
  423SOL    HW2 1311   1.329   2.229   1.003
  424SOL     OW 1312   1.584   3.500   0.362
  424SOL    HW1 1313   1.679   3.510   0.340
  424SOL    HW2 1314   1.548   3.480   0.273
  425SOL     OW 1315   5.144   2.458   1.422
  425SOL    HW1 1316   5.107   2.423   1.505
  425SOL    HW2 1317   5.113   2.394   1.355
  426SOL     OW 1318   1.373   2.331   1.658
  426SOL    HW1 1319   1.381   2.374   1.745
  426SOL    HW2 1320   1.432   2.255   1.667
  427SOL     OW 1321   5.274   2.762   1.560
  427SOL    HW1 1322   5.327   2.701   1.506
  427SOL    HW2 1323   5.228   2.813   1.491
  428SOL     OW 1324   1.009   2.250   1.197
  428SOL    HW1 1325   0.915   2.270   1.215
  428SOL    HW2 1326   1.004   2.215   1.107
  429SOL     OW 1327   1.095   2.558   0.412
  429SOL    HW1 1328   1.108   2.558   0.509
  429SOL    HW2 1329   1.006   2.518   0.404
  430SOL     OW 1330   4.449   2.582   0.736
  430SOL    HW1 1331   4.521   2.598   0.800
  430SOL    HW2 1332   4.434   2.671   0.700
  431SOL     OW 1333   4.498   3.793   1.683
  431SOL    HW1 1334   4.506   3.714   1.741
  431SOL    HW2 1335   4.402   3.810   1.691
  432SOL     OW 1336   0.901   2.271   0.161
  432SOL    HW1 1337   0.961   2.328   0.109
  432SOL    HW2 1338   0.917   2.183   0.122
  433SOL     OW 1339   1.670   2.443   1.860
  433SOL    HW1 1340   1.658   2.521   1.802
  433SOL    HW2 1341   1.699   2.374   1.797
  434SOL     OW 1342   1.368   3.051   0.604
  434SOL    HW1 1343   1.434   3.073   0.536
  434SOL    HW2 1344   1.293   3.103   0.572
  435SOL     OW 1345   4.884   2.013   0.952
  435SOL    HW1 1346   4.891   2.037   1.047
  435SOL    HW2 1347   4.878   2.102   0.912
  436SOL     OW 1348   0.958   3.340   0.477
  436SOL    HW1 1349   0.933   3.416   0.423
  436SOL    HW2 1350   0.909   3.359   0.560
  437SOL     OW 1351   4.659   3.640   0.871
  437SOL    HW1 1352   4.708   3.555   0.875
  437SOL    HW2 1353   4.727   3.704   0.898
  438SOL     OW 1354   1.813   2.886   0.925
  438SOL    HW1 1355   1.769   2.860   0.842
  438SOL    HW2 1356   1.736   2.907   0.981
  439SOL     OW 1357   1.240   3.417   1.543
  439SOL    HW1 1358   1.230   3.338   1.598
  439SOL    HW2 1359   1.170   3.401   1.476
  440SOL     OW 1360   0.302   2.827   0.279
  440SOL    HW1 1361   0.400   2.829   0.269
  440SOL    HW2 1362   0.281   2.746   0.227
  441SOL     OW 1363   1.484   2.639   0.691
  441SOL    HW1 1364   1.470   2.601   0.780
  441SOL    HW2 1365   1.569   2.685   0.700
  442SOL     OW 1366   4.806   3.178   1.720
  442SOL    HW1 1367   4.781   3.178   1.625
  442SOL    HW2 1368   4.725   3.139   1.760
  443SOL     OW 1369   1.122   3.653   0.232
  443SOL    HW1 1370   1.038   3.622   0.269
  443SOL    HW2 1371   1.186   3.602   0.283
  444SOL     OW 1372   4.572   2.091   1.533
  444SOL    HW1 1373   4.543   2.151   1.604
  444SOL    HW2 1374   4.529   2.008   1.562
  445SOL     OW 1375   1.660   3.220   0.159
  445SOL    HW1 1376   1.617   3.304   0.133
  445SOL    HW2 1377   1.594   3.154   0.130
  446SOL     OW 1378   0.439   3.620   0.331
  446SOL    HW1 1379   0.491   3.660   0.402
  446SOL    HW2 1380   0.506   3.568   0.284
  447SOL     OW 1381   1.391   1.954   0.478
  447SOL    HW1 1382   1.402   1.944   0.381
  447SOL    HW2 1383   1.479   1.924   0.509
  448SOL     OW 1384   4.503   3.660   1.220
  448SOL    HW1 1385   4.555   3.580   1.239
  448SOL    HW2 1386   4.459   3.636   1.136
  449SOL     OW 1387   0.908   3.563   0.889
  449SOL    HW1 1388   0.889   3.518   0.974
  449SOL    HW2 1389   0.919   3.488   0.828
  450SOL     OW 1390   0.418   2.521   0.526
  450SOL    HW1 1391   0.436   2.429   0.556
  450SOL    HW2 1392   0.322   2.516   0.511
  451SOL     OW 1393   1.506   2.079   1.709
  451SOL    HW1 1394   1.516   2.094   1.806
  451SOL    HW2 1395   1.428   2.022   1.707
  452SOL     OW 1396   0.639   2.002   0.135
  452SOL    HW1 1397   0.735   1.997   0.125
  452SOL    HW2 1398   0.614   2.026   0.043
  453SOL     OW 1399   5.096   2.123   1.693
  453SOL    HW1 1400   5.177   2.074   1.718
  453SOL    HW2 1401   5.037   2.101   1.767
  454SOL     OW 1402   0.823   3.435   1.120
  454SOL    HW1 1403   0.797   3.350   1.078
  454SOL    HW2 1404   0.883   3.403   1.191
  455SOL     OW 1405   1.292   2.452   1.426
  455SOL    HW1 1406   1.328   2.421   1.512
  455SOL    HW2 1407   1.327   2.542   1.419
  456SOL     OW 1408   0.784   3.204   0.964
  456SOL    HW1 1409   0.878   3.205   0.936
  456SOL    HW2 1410   0.736   3.204   0.880
  457SOL     OW 1411   0.925   2.386   0.879
  457SOL    HW1 1412   0.904   2.370   0.784
  457SOL    HW2 1413   0.955   2.298   0.906
  458SOL     OW 1414   0.561   1.918   0.508
  458SOL    HW1 1415   0.479   1.917   0.562
  458SOL    HW2 1416   0.554   2.004   0.461
  459SOL     OW 1417   1.472   3.024   0.124
  459SOL    HW1 1418   1.505   2.945   0.170
  459SOL    HW2 1419   1.435   2.987   0.043
  460SOL     OW 1420   0.364   1.973   0.181
  460SOL    HW1 1421   0.458   1.987   0.161
  460SOL    HW2 1422   0.367   1.883   0.218
  461SOL     OW 1423   0.940   2.114   0.431
  461SOL    HW1 1424   0.928   2.168   0.351
  461SOL    HW2 1425   1.034   2.130   0.454
  462SOL     OW 1426   1.051   2.580   1.392
  462SOL    HW1 1427   0.974   2.520   1.402
  462SOL    HW2 1428   1.127   2.521   1.402
  463SOL     OW 1429   1.173   3.443   0.805
  463SOL    HW1 1430   1.211   3.500   0.737
  463SOL    HW2 1431   1.180   3.498   0.885
  464SOL     OW 1432   4.821   2.981   0.734
  464SOL    HW1 1433   4.747   2.952   0.791
  464SOL    HW2 1434   4.776   2.986   0.647
  465SOL     OW 1435   1.259   3.649   0.620
  465SOL    HW1 1436   1.297   3.719   0.563
  465SOL    HW2 1437   1.184   3.695   0.661
  466SOL     OW 1438   1.046   2.458   0.013
  466SOL    HW1 1439   1.037   2.552   0.036
  466SOL    HW2 1440   1.143   2.445   0.020
  467SOL     OW 1441   4.440   2.471   1.357
  467SOL    HW1 1442   4.533   2.447   1.342
  467SOL    HW2 1443   4.444   2.517   1.441
  468SOL     OW 1444   4.896   2.082   1.214
  468SOL    HW1 1445   4.940   2.054   1.296
  468SOL    HW2 1446   4.802   2.071   1.237
  469SOL     OW 1447   0.881   2.316   0.623
  469SOL    HW1 1448   0.859   2.377   0.551
  469SOL    HW2 1449   0.887   2.232   0.574
  470SOL     OW 1450   1.009   1.939   0.737
  470SOL    HW1 1451   0.948   1.932   0.662
  470SOL    HW2 1452   0.977   1.868   0.795
  471SOL     OW 1453   1.399   3.012   0.883
  471SOL    HW1 1454   1.342   2.936   0.902
  471SOL    HW2 1455   1.387   3.024   0.787
  472SOL     OW 1456   1.439   2.518   0.930
  472SOL    HW1 1457   1.376   2.446   0.949
  472SOL    HW2 1458   1.502   2.511   1.005
  473SOL     OW 1459   1.909   2.669   0.378
  473SOL    HW1 1460   1.921   2.609   0.454
  473SOL    HW2 1461   1.846   2.620   0.323
  474SOL     OW 1462   0.526   3.269   0.148
  474SOL    HW1 1463   0.452   3.224   0.193
  474SOL    HW2 1464   0.500   3.259   0.055
  475SOL     OW 1465   1.746   3.142   0.599
  475SOL    HW1 1466   1.837   3.146   0.632
  475SOL    HW2 1467   1.700   3.214   0.645
  476SOL     OW 1468   1.322   2.436   0.028
  476SOL    HW1 1469   1.340   2.372   0.099
  476SOL    HW2 1470   1.382   2.405  -0.043
  477SOL     OW 1471   0.557   2.142   0.359
  477SOL    HW1 1472   0.593   2.089   0.286
  477SOL    HW2 1473   0.543   2.227   0.313
  478SOL     OW 1474   1.745   3.076   1.536
  478SOL    HW1 1475   1.838   3.050   1.532
  478SOL    HW2 1476   1.753   3.169   1.562
  479SOL     OW 1477   1.625   3.500   1.688
  479SOL    HW1 1478   1.645   3.562   1.617
  479SOL    HW2 1479   1.686   3.427   1.668
  480SOL     OW 1480   1.078   3.091   1.148
  480SOL    HW1 1481   1.056   3.161   1.212
  480SOL    HW2 1482   1.069   3.137   1.063
  481SOL     OW 1483   1.596   2.955   1.067
  481SOL    HW1 1484   1.601   3.037   1.120
  481SOL    HW2 1485   1.523   2.976   1.005
  482SOL     OW 1486   5.276   1.914   1.352
  482SOL    HW1 1487   5.301   1.914   1.258
  482SOL    HW2 1488   5.350   1.962   1.393
  483SOL     OW 1489   5.324   2.962   1.738
  483SOL    HW1 1490   5.232   2.980   1.766
  483SOL    HW2 1491   5.310   2.895   1.668
  484SOL     OW 1492   0.761   2.918   0.422
  484SOL    HW1 1493   0.748   2.881   0.512
  484SOL    HW2 1494   0.839   2.867   0.390
  485SOL     OW 1495   4.767   2.680   1.275
  485SOL    HW1 1496   4.842   2.688   1.337
  485SOL    HW2 1497   4.745   2.585   1.283
  486SOL     OW 1498   1.255   2.221   1.294
  486SOL    HW1 1499   1.273   2.306   1.339
  486SOL    HW2 1500   1.165   2.236   1.259
  487SOL     OW 1501   4.375   3.399   1.355
  487SOL    HW1 1502   4.365   3.479   1.407
  487SOL    HW2 1503   4.469   3.404   1.330
  488SOL     OW 1504   0.361   2.995   0.500
  488SOL    HW1 1505   0.363   3.062   0.430
  488SOL    HW2 1506   0.340   2.916   0.449
  489SOL     OW 1507   4.867   2.281   0.873
  489SOL    HW1 1508   4.862   2.299   0.778
  489SOL    HW2 1509   4.927   2.351   0.905
  490SOL     OW 1510   1.204   3.227   0.466
  490SOL    HW1 1511   1.267   3.296   0.496
  490SOL    HW2 1512   1.117   3.266   0.487
  491SOL     OW 1513   1.296   3.355   1.170
  491SOL    HW1 1514   1.354   3.380   1.244
  491SOL    HW2 1515   1.213   3.333   1.217
  492SOL     OW 1516   1.494   2.481   0.467
  492SOL    HW1 1517   1.491   2.532   0.550
  492SOL    HW2 1518   1.438   2.536   0.409
  493SOL     OW 1519   4.635   3.415   1.268
  493SOL    HW1 1520   4.642   3.350   1.195
  493SOL    HW2 1521   4.728   3.448   1.269
  494SOL     OW 1522   4.844   2.571   1.646
  494SOL    HW1 1523   4.885   2.616   1.569
  494SOL    HW2 1524   4.909   2.500   1.663
  495SOL     OW 1525   1.631   2.661   1.707
  495SOL    HW1 1526   1.538   2.688   1.697
  495SOL    HW2 1527   1.671   2.701   1.627
  496SOL     OW 1528   5.319   1.986   1.769
  496SOL    HW1 1529   5.376   2.063   1.746
  496SOL    HW2 1530   5.383   1.914   1.763
  497SOL     OW 1531   4.844   1.914   1.809
  497SOL    HW1 1532   4.803   1.868   1.732
  497SOL    HW2 1533   4.811   2.006   1.798
  498SOL     OW 1534   4.902   2.724   1.039
  498SOL    HW1 1535   4.950   2.807   1.049
  498SOL    HW2 1536   4.854   2.717   1.123
  499SOL     OW 1537   1.284   2.762   0.973
  499SOL    HW1 1538   1.197   2.723   0.955
  499SOL    HW2 1539   1.343   2.686   0.960
  500SOL     OW 1540   1.219   2.341   0.291
  500SOL    HW1 1541   1.232   2.291   0.373
  500SOL    HW2 1542   1.182   2.425   0.323
  501SOL     OW 1543   4.630   2.032   1.267
  501SOL    HW1 1544   4.605   2.059   1.357
  501SOL    HW2 1545   4.598   1.940   1.264
  502SOL     OW 1546   4.385   3.151   1.232
  502SOL    HW1 1547   4.421   3.101   1.309
  502SOL    HW2 1548   4.372   3.239   1.271
  503SOL     OW 1549   5.017   2.465   1.012
  503SOL    HW1 1550   5.097   2.466   0.956
  503SOL    HW2 1551   4.984   2.557   1.004
  504SOL     OW 1552   1.776   2.829   1.872
  504SOL    HW1 1553   1.725   2.763   1.823
  504SOL    HW2 1554   1.713   2.856   1.941
  505SOL     OW 1555   4.653   1.911   0.637
  505SOL    HW1 1556   4.618   1.998   0.665
  505SOL    HW2 1557   4.665   1.867   0.723
  506SOL     OW 1558   1.631   2.288   0.339
  506SOL    HW1 1559   1.670   2.222   0.399
  506SOL    HW2 1560   1.580   2.346   0.398
  507SOL     OW 1561   1.040   2.625   0.934
  507SOL    HW1 1562   1.016   2.649   1.026
  507SOL    HW2 1563   0.999   2.537   0.925
  508SOL     OW 1564   5.343   3.406   1.783
  508SOL    HW1 1565   5.311   3.459   1.708
  508SOL    HW2 1566   5.377   3.326   1.737
  509SOL     OW 1567   1.823   3.334   1.589
  509SOL    HW1 1568   1.853   3.366   1.502
  509SOL    HW2 1569   1.903   3.353   1.643
  510SOL     OW 1570   4.753   2.792   1.780
  510SOL    HW1 1571   4.807   2.801   1.860
  510SOL    HW2 1572   4.793   2.714   1.738
  511SOL     OW 1573   1.486   2.191   0.130
  511SOL    HW1 1574   1.473   2.102   0.166
  511SOL    HW2 1575   1.541   2.232   0.199
  512SOL     OW 1576   1.326   2.704   0.040
  512SOL    HW1 1577   1.325   2.607   0.026
  512SOL    HW2 1578   1.416   2.727   0.009
  513SOL     OW 1579   1.045   3.217   0.897
  513SOL    HW1 1580   1.071   3.141   0.840
  513SOL    HW2 1581   1.097   3.290   0.858
  514SOL     OW 1582   4.655   2.635   0.929
  514SOL    HW1 1583   4.750   2.658   0.941
  514SOL    HW2 1584   4.653   2.545   0.965
  515SOL     OW 1585   4.655   2.370   1.019
  515SOL    HW1 1586   4.608   2.285   1.019
  515SOL    HW2 1587   4.734   2.346   0.967
  516SOL     OW 1588   5.460   2.207   1.683
  516SOL    HW1 1589   5.417   2.259   1.754
  516SOL    HW2 1590   5.543   2.257   1.670
  517SOL     OW 1591   1.154   2.040   1.470
  517SOL    HW1 1592   1.136   2.103   1.542
  517SOL    HW2 1593   1.199   2.097   1.405
  518SOL     OW 1594   4.269   3.180   0.332
  518SOL    HW1 1595   4.182   3.139   0.328
  518SOL    HW2 1596   4.325   3.103   0.355
  519SOL     OW 1597   4.409   3.595   0.966
  519SOL    HW1 1598   4.400   3.509   0.923
  519SOL    HW2 1599   4.494   3.626   0.928
  520SOL     OW 1600   4.815   3.409   0.873
  520SOL    HW1 1601   4.881   3.480   0.859
  520SOL    HW2 1602   4.854   3.337   0.820
  521SOL     OW 1603   0.967   2.713   1.173
  521SOL    HW1 1604   1.006   2.664   1.247
  521SOL    HW2 1605   0.922   2.785   1.221
  522SOL     OW 1606   4.387   2.438   1.091
  522SOL    HW1 1607   4.479   2.424   1.064
  522SOL    HW2 1608   4.396   2.454   1.187
  523SOL     OW 1609   4.589   2.506   1.729
  523SOL    HW1 1610   4.682   2.520   1.702
  523SOL    HW2 1611   4.542   2.566   1.670
  524SOL     OW 1612   1.386   2.764   1.652
  524SOL    HW1 1613   1.413   2.858   1.645
  524SOL    HW2 1614   1.368   2.743   1.558
  525SOL     OW 1615   0.851   2.445   0.377
  525SOL    HW1 1616   0.853   2.389   0.298
  525SOL    HW2 1617   0.768   2.495   0.365
  526SOL     OW 1618   1.625   2.497   1.128
  526SOL    HW1 1619   1.612   2.431   1.197
  526SOL    HW2 1620   1.722   2.489   1.111
  527SOL     OW 1621   4.575   3.445   1.634
  527SOL    HW1 1622   4.555   3.487   1.719
  527SOL    HW2 1623   4.517   3.366   1.638
  528SOL     OW 1624   5.070   2.297   1.217
  528SOL    HW1 1625   5.004   2.226   1.210
  528SOL    HW2 1626   5.044   2.357   1.145
  529SOL     OW 1627   5.250   3.545   1.553
  529SOL    HW1 1628   5.277   3.483   1.482
  529SOL    HW2 1629   5.254   3.631   1.506
  530SOL     OW 1630   0.519   2.365   0.204
  530SOL    HW1 1631   0.554   2.444   0.249
  530SOL    HW2 1632   0.423   2.375   0.217
  531SOL     OW 1633   4.501   3.016   1.438
  531SOL    HW1 1634   4.498   2.985   1.530
  531SOL    HW2 1635   4.510   2.932   1.389
  532SOL     OW 1636   1.254   2.896   1.218
  532SOL    HW1 1637   1.264   2.854   1.132
  532SOL    HW2 1638   1.185   2.963   1.199
  533SOL     OW 1639   1.343   2.655   0.316
  533SOL    HW1 1640   1.254   2.637   0.351
  533SOL    HW2 1641   1.324   2.675   0.222
  534SOL     OW 1642   1.800   3.594   1.194
  534SOL    HW1 1643   1.852   3.621   1.116
  534SOL    HW2 1644   1.746   3.522   1.156
  535SOL     OW 1645   1.210   3.580   1.047
  535SOL    HW1 1646   1.293   3.626   1.067
  535SOL    HW2 1647   1.227   3.493   1.088
  536SOL     OW 1648   4.390   2.994   1.015
  536SOL    HW1 1649   4.390   3.051   1.095
  536SOL    HW2 1650   4.340   3.047   0.953
  537SOL     OW 1651   5.054   3.520   1.735
  537SOL    HW1 1652   4.998   3.599   1.723
  537SOL    HW2 1653   5.123   3.535   1.667
  538SOL     OW 1654   0.906   2.005   0.059
  538SOL    HW1 1655   0.923   1.988  -0.034
  538SOL    HW2 1656   0.972   1.947   0.102
  539SOL     OW 1657   1.761   2.082   0.479
  539SOL    HW1 1658   1.822   2.049   0.411
  539SOL    HW2 1659   1.717   1.999   0.507
  540SOL     OW 1660   1.383   3.422   0.534
  540SOL    HW1 1661   1.448   3.449   0.467
  540SOL    HW2 1662   1.344   3.507   0.563
  541SOL     OW 1663   4.501   3.586   1.859
  541SOL    HW1 1664   4.449   3.513   1.898
  541SOL    HW2 1665   4.534   3.631   1.938
  542SOL     OW 1666   1.272   2.803   0.647
  542SOL    HW1 1667   1.353   2.750   0.655
  542SOL    HW2 1668   1.308   2.890   0.620
  543SOL     OW 1669   5.188   3.118   1.470
  543SOL    HW1 1670   5.147   3.165   1.544
  543SOL    HW2 1671   5.242   3.188   1.429
  544SOL     OW 1672   0.647   3.503   0.183
  544SOL    HW1 1673   0.670   3.510   0.089
  544SOL    HW2 1674   0.606   3.414   0.185
  545SOL     OW 1675   1.694   3.640   1.456
  545SOL    HW1 1676   1.720   3.626   1.364
  545SOL    HW2 1677   1.640   3.721   1.450
  546SOL     OW 1678   1.856   2.017   0.969
  546SOL    HW1 1679   1.876   1.928   0.937
  546SOL    HW2 1680   1.767   2.036   0.932
  547SOL     OW 1681   4.577   2.145   0.748
  547SOL    HW1 1682   4.485   2.172   0.732
  547SOL    HW2 1683   4.578   2.138   0.845
  548SOL     OW 1684   1.260   3.394   0.003
  548SOL    HW1 1685   1.238   3.325   0.068
  548SOL    HW2 1686   1.183   3.451   0.007
  549SOL     OW 1687   5.146   2.887   1.343
  549SOL    HW1 1688   5.110   2.920   1.258
  549SOL    HW2 1689   5.162   2.973   1.389
  550SOL     OW 1690   0.964   2.781   0.309
  550SOL    HW1 1691   0.987   2.769   0.216
  550SOL    HW2 1692   1.016   2.711   0.352
  551SOL     OW 1693   1.514   3.450   0.104
  551SOL    HW1 1694   1.430   3.437   0.057
  551SOL    HW2 1695   1.549   3.533   0.065
  552SOL     OW 1696   4.715   3.186   1.459
  552SOL    HW1 1697   4.681   3.273   1.436
  552SOL    HW2 1698   4.636   3.129   1.451
  553SOL     OW 1699   1.633   3.173   1.237
  553SOL    HW1 1700   1.704   3.144   1.296
  553SOL    HW2 1701   1.553   3.145   1.287
  554SOL     OW 1702   1.086   2.987   0.762
  554SOL    HW1 1703   1.009   2.938   0.796
  554SOL    HW2 1704   1.138   2.917   0.718
  555SOL     OW 1705   1.039   2.127   0.947
  555SOL    HW1 1706   1.031   2.083   0.860
  555SOL    HW2 1707   1.041   2.049   1.005
  556SOL     OW 1708   0.552   3.281   0.476
  556SOL    HW1 1709   0.568   3.260   0.384
  556SOL    HW2 1710   0.457   3.304   0.476
  557SOL     OW 1711   1.791   2.196   1.431
  557SOL    HW1 1712   1.854   2.268   1.411
  557SOL    HW2 1713   1.802   2.137   1.354
  558SOL     OW 1714   0.319   3.163   0.280
  558SOL    HW1 1715   0.240   3.140   0.229
  558SOL    HW2 1716   0.285   3.229   0.344
  559SOL     OW 1717   4.527   2.897   1.686
  559SOL    HW1 1718   4.521   2.974   1.746
  559SOL    HW2 1719   4.611   2.857   1.719
  560SOL     OW 1720   5.036   2.015   1.446
  560SOL    HW1 1721   5.121   1.985   1.410
  560SOL    HW2 1722   5.062   2.060   1.528
  561SOL     OW 1723   6.485   0.116   3.057
  561SOL    HW1 1724   6.467   0.039   3.000
  561SOL    HW2 1725   6.576   0.096   3.086
  562SOL     OW 1726   1.371   2.713   1.386
  562SOL    HW1 1727   1.313   2.772   1.334
  562SOL    HW2 1728   1.456   2.726   1.341
  563SOL     OW 1729   4.461   2.048   0.322
  563SOL    HW1 1730   4.423   2.010   0.241
  563SOL    HW2 1731   4.555   2.036   0.306
  564SOL     OW 1732   1.153   3.228   0.198
  564SOL    HW1 1733   1.115   3.140   0.188
  564SOL    HW2 1734   1.183   3.226   0.291
  565SOL     OW 1735   4.984   2.680   1.432
  565SOL    HW1 1736   5.037   2.758   1.409
  565SOL    HW2 1737   5.049   2.608   1.423
  566SOL     OW 1738   1.466   3.642   1.142
  566SOL    HW1 1739   1.530   3.581   1.106
  566SOL    HW2 1740   1.448   3.603   1.230
  567SOL     OW 1741   5.055   2.398   1.672
  567SOL    HW1 1742   5.122   2.445   1.725
  567SOL    HW2 1743   5.075   2.304   1.690
  568SOL     OW 1744   1.486   3.014   1.630
  568SOL    HW1 1745   1.479   3.052   1.720
  568SOL    HW2 1746   1.576   3.041   1.604
  569SOL     OW 1747   4.711   3.659   1.543
  569SOL    HW1 1748   4.633   3.710   1.569
  569SOL    HW2 1749   4.678   3.567   1.559
  570SOL     OW 1750   1.604   2.749   1.249
  570SOL    HW1 1751   1.615   2.669   1.195
  570SOL    HW2 1752   1.600   2.820   1.181
  571SOL     OW 1753   1.205   2.152   0.491
  571SOL    HW1 1754   1.275   2.084   0.493
  571SOL    HW2 1755   1.232   2.210   0.566
  572SOL     OW 1756   0.594   2.571   0.736
  572SOL    HW1 1757   0.639   2.654   0.713
  572SOL    HW2 1758   0.529   2.563   0.665
  573SOL     OW 1759   1.744   2.239   1.693
  573SOL    HW1 1760   1.758   2.231   1.597
  573SOL    HW2 1761   1.668   2.180   1.707
  574SOL     OW 1762   1.727   2.793   1.489
  574SOL    HW1 1763   1.718   2.889   1.501
  574SOL    HW2 1764   1.684   2.779   1.402
  575SOL     OW 1765   0.884   3.135   0.039
  575SOL    HW1 1766   0.860   3.129   0.134
  575SOL    HW2 1767   0.889   3.231   0.029
  576SOL     OW 1768   0.651   3.613   0.818
  576SOL    HW1 1769   0.614   3.699   0.843
  576SOL    HW2 1770   0.742   3.618   0.853
  577SOL     OW 1771   0.877   2.850   0.882
  577SOL    HW1 1772   0.928   2.772   0.908
  577SOL    HW2 1773   0.838   2.879   0.965
  578SOL     OW 1774   1.052   2.733   0.052
  578SOL    HW1 1775   1.017   2.797  -0.013
  578SOL    HW2 1776   1.149   2.741   0.039
  579SOL     OW 1777   1.823   3.406   0.824
  579SOL    HW1 1778   1.737   3.393   0.781
  579SOL    HW2 1779   1.804   3.374   0.914
  580SOL     OW 1780   4.565   3.124   1.839
  580SOL    HW1 1781   4.502   3.189   1.805
  580SOL    HW2 1782   4.571   3.146   1.934
  581SOL     OW 1783   4.472   3.159   0.646
  581SOL    HW1 1784   4.383   3.123   0.662
  581SOL    HW2 1785   4.517   3.085   0.603
  582SOL     OW 1786   5.063   3.246   1.683
  582SOL    HW1 1787   4.968   3.227   1.687
  582SOL    HW2 1788   5.065   3.342   1.702
  583SOL     OW 1789   1.809   2.013   1.237
  583SOL    HW1 1790   1.801   1.917   1.238
  583SOL    HW2 1791   1.830   2.031   1.144
  584SOL     OW 1792   0.453   2.267   0.603
  584SOL    HW1 1793   0.480   2.209   0.529
  584SOL    HW2 1794   0.380   2.218   0.645
  585SOL     OW 1795   1.657   3.391   1.080
  585SOL    HW1 1796   1.583   3.359   1.024
  585SOL    HW2 1797   1.660   3.318   1.145
  586SOL     OW 1798   4.699   2.421   1.296
  586SOL    HW1 1799   4.741   2.353   1.353
  586SOL    HW2 1800   4.706   2.383   1.207
  587SOL     OW 1801   0.799   3.414   0.679
  587SOL    HW1 1802   0.741   3.490   0.696
  587SOL    HW2 1803   0.739   3.339   0.693
  588SOL     OW 1804   1.418   2.120   1.105
  588SOL    HW1 1805   1.433   2.027   1.127
  588SOL    HW2 1806   1.368   2.152   1.183
  589SOL     OW 1807   1.039   1.887   1.086
  589SOL    HW1 1808   0.985   1.825   1.034
  589SOL    HW2 1809   1.125   1.840   1.087
  590SOL     OW 1810   0.846   3.150   0.305
  590SOL    HW1 1811   0.810   3.073   0.354
  590SOL    HW2 1812   0.883   3.205   0.376
  591SOL     OW 1813   4.890   3.500   1.233
  591SOL    HW1 1814   4.905   3.587   1.273
  591SOL    HW2 1815   4.978   3.477   1.198
  592SOL     OW 1816   1.418   1.931   0.204
  592SOL    HW1 1817   1.454   1.845   0.177
  592SOL    HW2 1818   1.340   1.940   0.148
  593SOL     OW 1819   1.284   2.329   0.680
  593SOL    HW1 1820   1.238   2.414   0.671
  593SOL    HW2 1821   1.278   2.314   0.776
  594SOL     OW 1822   1.599   2.075   0.903
  594SOL    HW1 1823   1.538   2.107   0.972
  594SOL    HW2 1824   1.591   2.145   0.836
  595SOL     OW 1825   4.413   2.954   0.395
  595SOL    HW1 1826   4.482   2.903   0.349
  595SOL    HW2 1827   4.402   2.903   0.477
  596SOL     OW 1828   0.882   3.554   0.324
  596SOL    HW1 1829   0.790   3.546   0.292
  596SOL    HW2 1830   0.873   3.622   0.394
  597SOL     OW 1831   4.599   2.596   1.996
  597SOL    HW1 1832   4.572   2.514   2.042
  597SOL    HW2 1833   4.591   2.571   1.903
  598SOL     OW 1834   4.548   2.105   2.837
  598SOL    HW1 1835   4.588   2.067   2.917
  598SOL    HW2 1836   4.465   2.055   2.829
  599SOL     OW 1837   4.358   2.225   2.447
  599SOL    HW1 1838   4.264   2.245   2.431
  599SOL    HW2 1839   4.369   2.146   2.391
  600SOL     OW 1840   2.733   0.990   0.008
  600SOL    HW1 1841   2.648   1.001  -0.039
  600SOL    HW2 1842   2.748   1.081   0.039
  601SOL     OW 1843   5.923   3.406   2.541
  601SOL    HW1 1844   5.868   3.374   2.615
  601SOL    HW2 1845   5.859   3.402   2.467
  602SOL     OW 1846   5.470   2.566   2.536
  602SOL    HW1 1847   5.516   2.649   2.514
  602SOL    HW2 1848   5.430   2.587   2.622
  603SOL     OW 1849   1.827   2.439   2.074
  603SOL    HW1 1850   1.773   2.449   1.993
  603SOL    HW2 1851   1.776   2.370   2.120
  604SOL     OW 1852   5.059   2.977   2.942
  604SOL    HW1 1853   4.991   3.028   2.990
  604SOL    HW2 1854   5.106   3.051   2.900
  605SOL     OW 1855   5.021   2.849   2.521
  605SOL    HW1 1856   5.093   2.857   2.587
  605SOL    HW2 1857   4.958   2.917   2.550
  606SOL     OW 1858   4.672   3.241   2.938
  606SOL    HW1 1859   4.617   3.192   2.875
  606SOL    HW2 1860   4.718   3.306   2.880
  607SOL     OW 1861   3.643   1.118   0.171
  607SOL    HW1 1862   3.673   1.211   0.176
  607SOL    HW2 1863   3.691   1.080   0.248
  608SOL     OW 1864   5.902   2.300   2.614
  608SOL    HW1 1865   5.828   2.302   2.551
  608SOL    HW2 1866   5.883   2.378   2.668
  609SOL     OW 1867   4.564   3.578   2.304
  609SOL    HW1 1868   4.603   3.638   2.371
  609SOL    HW2 1869   4.632   3.582   2.234
  610SOL     OW 1870   4.665   3.328   2.346
  610SOL    HW1 1871   4.621   3.415   2.345
  610SOL    HW2 1872   4.601   3.275   2.398
  611SOL     OW 1873   4.593   2.936   2.709
  611SOL    HW1 1874   4.619   2.845   2.736
  611SOL    HW2 1875   4.538   2.965   2.784
  612SOL     OW 1876   2.760   1.411   0.332
  612SOL    HW1 1877   2.821   1.376   0.398
  612SOL    HW2 1878   2.806   1.492   0.302
  613SOL     OW 1879   4.923   2.847   2.030
  613SOL    HW1 1880   4.975   2.897   1.965
  613SOL    HW2 1881   4.966   2.877   2.113
  614SOL     OW 1882   3.837   4.098   0.345
  614SOL    HW1 1883   3.750   4.117   0.307
  614SOL    HW2 1884   3.841   4.163   0.417
  615SOL     OW 1885   4.496   2.448   2.376
  615SOL    HW1 1886   4.443   2.370   2.400
  615SOL    HW2 1887   4.476   2.507   2.451
  616SOL     OW 1888   1.858   3.602   2.163
  616SOL    HW1 1889   1.936   3.599   2.223
  616SOL    HW2 1890   1.859   3.695   2.135
  617SOL     OW 1891   4.371   3.388   1.987
  617SOL    HW1 1892   4.356   3.296   2.016
  617SOL    HW2 1893   4.342   3.438   2.066
  618SOL     OW 1894   6.042   2.815   2.529
  618SOL    HW1 1895   6.125   2.771   2.509
  618SOL    HW2 1896   6.024   2.865   2.447
  619SOL     OW 1897   1.671   2.982   2.303
  619SOL    HW1 1898   1.754   2.960   2.257
  619SOL    HW2 1899   1.699   3.059   2.358
  620SOL     OW 1900   4.955   3.242   2.644
  620SOL    HW1 1901   4.905   3.160   2.627
  620SOL    HW2 1902   4.957   3.281   2.555
  621SOL     OW 1903   3.397   0.987   0.210
  621SOL    HW1 1904   3.413   0.894   0.188
  621SOL    HW2 1905   3.486   1.026   0.201
  622SOL     OW 1906   5.190   1.867   2.384
  622SOL    HW1 1907   5.229   1.951   2.351
  622SOL    HW2 1908   5.094   1.887   2.376
  623SOL     OW 1909   2.426   0.677   0.087
  623SOL    HW1 1910   2.501   0.621   0.060
  623SOL    HW2 1911   2.399   0.717   0.003
  624SOL     OW 1912   1.567   2.902   2.057
  624SOL    HW1 1913   1.492   2.845   2.083
  624SOL    HW2 1914   1.601   2.929   2.144
  625SOL     OW 1915   5.770   3.311   2.750
  625SOL    HW1 1916   5.728   3.316   2.838
  625SOL    HW2 1917   5.756   3.216   2.728
  626SOL     OW 1918   5.963   3.692   2.400
  626SOL    HW1 1919   5.954   3.627   2.327
  626SOL    HW2 1920   5.971   3.635   2.477
  627SOL     OW 1921   4.936   2.568   2.127
  627SOL    HW1 1922   4.933   2.658   2.090
  627SOL    HW2 1923   4.871   2.573   2.200
  628SOL     OW 1924   5.615   2.282   2.792
  628SOL    HW1 1925   5.532   2.230   2.794
  628SOL    HW2 1926   5.670   2.232   2.855
  629SOL     OW 1927   1.599   3.522   2.191
  629SOL    HW1 1928   1.694   3.536   2.177
  629SOL    HW2 1929   1.567   3.511   2.099
  630SOL     OW 1930   2.912   0.287   0.239
  630SOL    HW1 1931   2.916   0.221   0.310
  630SOL    HW2 1932   2.904   0.231   0.160
  631SOL     OW 1933   3.166   0.154   0.032
  631SOL    HW1 1934   3.073   0.129   0.043
  631SOL    HW2 1935   3.171   0.169  -0.064
  632SOL     OW 1936   5.387   2.542   2.274
  632SOL    HW1 1937   5.409   2.541   2.369
  632SOL    HW2 1938   5.299   2.499   2.272
  633SOL     OW 1939   4.451   2.606   2.596
  633SOL    HW1 1940   4.525   2.625   2.656
  633SOL    HW2 1941   4.441   2.691   2.549
  634SOL     OW 1942   5.193   2.211   2.069
  634SOL    HW1 1943   5.248   2.251   1.999
  634SOL    HW2 1944   5.148   2.139   2.022
  635SOL     OW 1945   5.739   3.019   2.413
  635SOL    HW1 1946   5.823   3.011   2.364
  635SOL    HW2 1947   5.687   3.079   2.356
  636SOL     OW 1948   4.932   1.982   2.753
  636SOL    HW1 1949   4.934   2.017   2.844
  636SOL    HW2 1950   4.938   2.061   2.699
  637SOL     OW 1951   5.337   3.311   2.322
  637SOL    HW1 1952   5.316   3.381   2.257
  637SOL    HW2 1953   5.299   3.349   2.403
  638SOL     OW 1954   4.659   3.627   2.712
  638SOL    HW1 1955   4.704   3.541   2.724
  638SOL    HW2 1956   4.722   3.684   2.763
  639SOL     OW 1957   6.136   2.924   2.767
  639SOL    HW1 1958   6.100   2.906   2.679
  639SOL    HW2 1959   6.055   2.922   2.821
  640SOL     OW 1960   3.295   1.183   0.375
  640SOL    HW1 1961   3.334   1.114   0.318
  640SOL    HW2 1962   3.246   1.238   0.311
  641SOL     OW 1963   4.662   2.820   2.128
  641SOL    HW1 1964   4.749   2.836   2.088
  641SOL    HW2 1965   4.634   2.738   2.082
  642SOL     OW 1966   5.828   2.642   2.547
  642SOL    HW1 1967   5.815   2.603   2.635
  642SOL    HW2 1968   5.905   2.701   2.560
  643SOL     OW 1969   5.503   3.607   2.099
  643SOL    HW1 1970   5.412   3.582   2.124
  643SOL    HW2 1971   5.526   3.537   2.036
  644SOL     OW 1972   1.673   3.257   1.960
  644SOL    HW1 1973   1.628   3.342   1.951
  644SOL    HW2 1974   1.602   3.196   1.932
  645SOL     OW 1975   4.770   3.612   2.127
  645SOL    HW1 1976   4.834   3.656   2.187
  645SOL    HW2 1977   4.828   3.552   2.077
  646SOL     OW 1978   5.717   1.980   2.321
  646SOL    HW1 1979   5.727   1.955   2.227
  646SOL    HW2 1980   5.802   1.952   2.358
  647SOL     OW 1981   2.402   1.477   0.072
  647SOL    HW1 1982   2.439   1.391   0.094
  647SOL    HW2 1983   2.363   1.461  -0.016
  648SOL     OW 1984   5.304   3.564   2.711
  648SOL    HW1 1985   5.385   3.510   2.705
  648SOL    HW2 1986   5.245   3.517   2.650
  649SOL     OW 1987   4.761   2.530   2.334
  649SOL    HW1 1988   4.782   2.437   2.354
  649SOL    HW2 1989   4.664   2.526   2.334
  650SOL     OW 1990   5.056   1.994   1.956
  650SOL    HW1 1991   5.132   1.939   1.929
  650SOL    HW2 1992   4.982   1.950   1.909
  651SOL     OW 1993   3.003   1.192   0.010
  651SOL    HW1 1994   2.993   1.157  -0.081
  651SOL    HW2 1995   3.049   1.117   0.054
  652SOL     OW 1996   3.481   0.329   0.245
  652SOL    HW1 1997   3.551   0.291   0.299
  652SOL    HW2 1998   3.510   0.421   0.234
  653SOL     OW 1999   5.148   3.214   2.836
  653SOL    HW1 2000   5.233   3.221   2.788
  653SOL    HW2 2001   5.083   3.230   2.764
  654SOL     OW 2002   5.274   2.366   2.743
  654SOL    HW1 2003   5.249   2.353   2.649
  654SOL    HW2 2004   5.314   2.279   2.763
  655SOL     OW 2005   4.931   1.923   2.342
  655SOL    HW1 2006   4.851   1.924   2.399
  655SOL    HW2 2007   4.914   1.997   2.281
  656SOL     OW 2008   1.460   3.092   1.894
  656SOL    HW1 2009   1.495   3.019   1.949
  656SOL    HW2 2010   1.373   3.107   1.934
  657SOL     OW 2011   4.654   1.844   1.993
  657SOL    HW1 2012   4.721   1.864   1.925
  657SOL    HW2 2013   4.708   1.797   2.059
  658SOL     OW 2014   5.289   2.108   2.306
  658SOL    HW1 2015   5.257   2.144   2.221
  658SOL    HW2 2016   5.383   2.134   2.304
  659SOL     OW 2017   3.239   0.215   0.306
  659SOL    HW1 2018   3.199   0.215   0.218
  659SOL    HW2 2019   3.320   0.267   0.292
  660SOL     OW 2020   5.537   3.427   2.635
  660SOL    HW1 2021   5.559   3.500   2.574
  660SOL    HW2 2022   5.624   3.404   2.672
  661SOL     OW 2023   4.811   3.024   2.569
  661SOL    HW1 2024   4.734   2.997   2.623
  661SOL    HW2 2025   4.773   3.022   2.479
  662SOL     OW 2026   5.591   3.649   2.478
  662SOL    HW1 2027   5.638   3.719   2.428
  662SOL    HW2 2028   5.522   3.702   2.522
  663SOL     OW 2029   5.353   2.347   1.889
  663SOL    HW1 2030   5.322   2.434   1.857
  663SOL    HW2 2031   5.418   2.370   1.957
  664SOL     OW 2032   2.263   0.206   0.176
  664SOL    HW1 2033   2.359   0.210   0.159
  664SOL    HW2 2034   2.246   0.298   0.203
  665SOL     OW 2035   4.924   2.042   3.018
  665SOL    HW1 2036   4.952   1.959   3.061
  665SOL    HW2 2037   4.828   2.040   3.035
  666SOL     OW 2038   5.207   2.306   2.488
  666SOL    HW1 2039   5.169   2.359   2.416
  666SOL    HW2 2040   5.235   2.227   2.440
  667SOL     OW 2041   5.366   1.928   2.602
  667SOL    HW1 2042   5.302   1.917   2.530
  667SOL    HW2 2043   5.342   1.855   2.663
  668SOL     OW 2044   5.722   3.050   2.691
  668SOL    HW1 2045   5.631   3.017   2.695
  668SOL    HW2 2046   5.742   3.037   2.597
  669SOL     OW 2047   5.773   2.509   2.783
  669SOL    HW1 2048   5.709   2.436   2.791
  669SOL    HW2 2049   5.831   2.494   2.861
  670SOL     OW 2050   1.818   2.647   2.250
  670SOL    HW1 2051   1.879   2.610   2.317
  670SOL    HW2 2052   1.824   2.579   2.180
  671SOL     OW 2053   4.832   3.314   1.969
  671SOL    HW1 2054   4.759   3.270   2.017
  671SOL    HW2 2055   4.828   3.271   1.882
  672SOL     OW 2056   1.763   3.175   2.457
  672SOL    HW1 2057   1.857   3.170   2.485
  672SOL    HW2 2058   1.734   3.259   2.494
  673SOL     OW 2059   1.387   2.433   1.906
  673SOL    HW1 2060   1.337   2.405   1.986
  673SOL    HW2 2061   1.479   2.425   1.933
  674SOL     OW 2062   4.883   2.108   2.148
  674SOL    HW1 2063   4.947   2.068   2.086
  674SOL    HW2 2064   4.871   2.196   2.108
  675SOL     OW 2065   3.128   0.982   0.129
  675SOL    HW1 2066   3.070   0.950   0.200
  675SOL    HW2 2067   3.215   0.982   0.173
  676SOL     OW 2068   5.470   3.122   2.975
  676SOL    HW1 2069   5.393   3.130   3.035
  676SOL    HW2 2070   5.433   3.152   2.890
  677SOL     OW 2071   5.897   2.938   2.893
  677SOL    HW1 2072   5.912   3.015   2.950
  677SOL    HW2 2073   5.828   2.970   2.832
  678SOL     OW 2074   3.083   4.149   0.156
  678SOL    HW1 2075   3.121   4.137   0.067
  678SOL    HW2 2076   3.160   4.184   0.205
  679SOL     OW 2077   5.062   2.925   2.257
  679SOL    HW1 2078   5.044   2.894   2.348
  679SOL    HW2 2079   5.143   2.874   2.235
  680SOL     OW 2080   2.616   0.485   0.043
  680SOL    HW1 2081   2.662   0.497   0.128
  680SOL    HW2 2082   2.581   0.395   0.054
  681SOL     OW 2083   3.428   0.108   0.085
  681SOL    HW1 2084   3.455   0.187   0.136
  681SOL    HW2 2085   3.335   0.128   0.063
  682SOL     OW 2086   2.222   1.173   0.177
  682SOL    HW1 2087   2.184   1.251   0.222
  682SOL    HW2 2088   2.313   1.202   0.158
  683SOL     OW 2089   4.685   3.010   2.325
  683SOL    HW1 2090   4.691   3.076   2.254
  683SOL    HW2 2091   4.679   2.928   2.273
  684SOL     OW 2092   4.812   2.417   2.736
  684SOL    HW1 2093   4.831   2.475   2.660
  684SOL    HW2 2094   4.898   2.414   2.781
  685SOL     OW 2095   5.586   3.205   2.270
  685SOL    HW1 2096   5.637   3.283   2.298
  685SOL    HW2 2097   5.495   3.232   2.296
  686SOL     OW 2098   5.666   3.314   2.997
  686SOL    HW1 2099   5.710   3.304   3.083
  686SOL    HW2 2100   5.597   3.245   3.001
  687SOL     OW 2101   5.918   2.496   2.326
  687SOL    HW1 2102   5.872   2.540   2.399
  687SOL    HW2 2103   5.984   2.562   2.300
  688SOL     OW 2104   2.487   1.214   0.108
  688SOL    HW1 2105   2.483   1.161   0.026
  688SOL    HW2 2106   2.583   1.234   0.112
  689SOL     OW 2107   4.997   2.701   2.935
  689SOL    HW1 2108   5.002   2.798   2.925
  689SOL    HW2 2109   4.918   2.691   2.992
  690SOL     OW 2110   5.611   2.724   2.890
  690SOL    HW1 2111   5.526   2.693   2.855
  690SOL    HW2 2112   5.674   2.661   2.851
  691SOL     OW 2113   5.528   2.382   2.102
  691SOL    HW1 2114   5.541   2.308   2.166
  691SOL    HW2 2115   5.485   2.448   2.160
  692SOL     OW 2116   2.491   4.188   0.017
  692SOL    HW1 2117   2.512   4.237   0.099
  692SOL    HW2 2118   2.454   4.105   0.052
  693SOL     OW 2119   2.183   0.920   0.100
  693SOL    HW1 2120   2.243   0.892   0.171
  693SOL    HW2 2121   2.183   1.017   0.114
  694SOL     OW 2122   5.043   2.438   2.871
  694SOL    HW1 2123   5.126   2.425   2.821
  694SOL    HW2 2124   5.040   2.535   2.885
  695SOL     OW 2125   4.700   1.922   2.483
  695SOL    HW1 2126   4.657   2.007   2.506
  695SOL    HW2 2127   4.699   1.876   2.569
  696SOL     OW 2128   1.630   2.269   2.183
  696SOL    HW1 2129   1.665   2.209   2.251
  696SOL    HW2 2130   1.601   2.346   2.236
  697SOL     OW 2131   5.364   2.617   2.796
  697SOL    HW1 2132   5.333   2.630   2.888
  697SOL    HW2 2133   5.336   2.525   2.779
  698SOL     OW 2134   1.533   2.122   1.969
  698SOL    HW1 2135   1.485   2.051   2.015
  698SOL    HW2 2136   1.564   2.178   2.043
  699SOL     OW 2137   5.606   2.679   1.882
  699SOL    HW1 2138   5.644   2.589   1.884
  699SOL    HW2 2139   5.642   2.713   1.798
  700SOL     OW 2140   5.392   3.213   2.726
  700SOL    HW1 2141   5.421   3.134   2.676
  700SOL    HW2 2142   5.442   3.285   2.683
  701SOL     OW 2143   4.665   2.681   2.757
  701SOL    HW1 2144   4.736   2.667   2.691
  701SOL    HW2 2145   4.690   2.617   2.825
  702SOL     OW 2146   4.616   2.356   2.902
  702SOL    HW1 2147   4.590   2.266   2.874
  702SOL    HW2 2148   4.685   2.377   2.836
  703SOL     OW 2149   3.302   4.269   0.274
  703SOL    HW1 2150   3.272   4.350   0.318
  703SOL    HW2 2151   3.361   4.306   0.206
  704SOL     OW 2152   4.337   3.141   2.113
  704SOL    HW1 2153   4.244   3.154   2.138
  704SOL    HW2 2154   4.353   3.049   2.142
  705SOL     OW 2155   4.456   3.591   2.886
  705SOL    HW1 2156   4.422   3.507   2.856
  705SOL    HW2 2157   4.526   3.609   2.820
  706SOL     OW 2158   4.818   3.423   2.800
  706SOL    HW1 2159   4.872   3.497   2.832
  706SOL    HW2 2160   4.881   3.370   2.748
  707SOL     OW 2161   5.256   2.654   3.035
  707SOL    HW1 2162   5.270   2.663   3.131
  707SOL    HW2 2163   5.160   2.670   3.028
  708SOL     OW 2164   4.367   2.445   2.974
  708SOL    HW1 2165   4.457   2.423   2.943
  708SOL    HW2 2166   4.369   2.408   3.063
  709SOL     OW 2167   5.143   2.422   2.242
  709SOL    HW1 2168   5.150   2.349   2.178
  709SOL    HW2 2169   5.073   2.477   2.203
  710SOL     OW 2170   5.931   2.466   2.995
  710SOL    HW1 2171   5.916   2.397   3.062
  710SOL    HW2 2172   6.029   2.465   2.991
  711SOL     OW 2173   2.894   0.114   0.027
  711SOL    HW1 2174   2.849   0.030   0.006
  711SOL    HW2 2175   2.876   0.166  -0.054
  712SOL     OW 2176   3.146   1.329   0.204
  712SOL    HW1 2177   3.097   1.296   0.127
  712SOL    HW2 2178   3.148   1.425   0.189
  713SOL     OW 2179   4.821   2.340   2.023
  713SOL    HW1 2180   4.868   2.423   2.044
  713SOL    HW2 2181   4.731   2.359   2.056
  714SOL     OW 2182   2.355   0.845   0.296
  714SOL    HW1 2183   2.319   0.792   0.370
  714SOL    HW2 2184   2.388   0.776   0.236
  715SOL     OW 2185   3.442   0.747   0.030
  715SOL    HW1 2186   3.447   0.679  -0.041
  715SOL    HW2 2187   3.395   0.819  -0.016
  716SOL     OW 2188   5.681   2.764   2.131
  716SOL    HW1 2189   5.617   2.728   2.194
  716SOL    HW2 2190   5.647   2.733   2.045
  717SOL     OW 2191   6.075   3.598   3.006
  717SOL    HW1 2192   6.156   3.617   2.955
  717SOL    HW2 2193   6.053   3.510   2.971
  718SOL     OW 2194   5.588   3.576   2.954
  718SOL    HW1 2195   5.676   3.614   2.937
  718SOL    HW2 2196   5.610   3.483   2.974
  719SOL     OW 2197   4.430   3.015   2.912
  719SOL    HW1 2198   4.405   3.042   3.003
  719SOL    HW2 2199   4.344   3.018   2.868
  720SOL     OW 2200   1.753   2.087   2.346
  720SOL    HW1 2201   1.808   2.049   2.275
  720SOL    HW2 2202   1.705   2.007   2.377
  721SOL     OW 2203   5.724   3.429   2.351
  721SOL    HW1 2204   5.786   3.466   2.285
  721SOL    HW2 2205   5.670   3.506   2.375
  722SOL     OW 2206   5.611   2.790   2.484
  722SOL    HW1 2207   5.690   2.735   2.501
  722SOL    HW2 2208   5.651   2.870   2.446
  723SOL     OW 2209   2.835   0.916   0.256
  723SOL    HW1 2210   2.757   0.949   0.305
  723SOL    HW2 2211   2.811   0.946   0.167
  724SOL     OW 2212   5.018   3.507   2.002
  724SOL    HW1 2213   5.042   3.509   1.907
  724SOL    HW2 2214   4.959   3.428   2.002
  725SOL     OW 2215   3.755   1.367   0.176
  725SOL    HW1 2216   3.814   1.392   0.105
  725SOL    HW2 2217   3.764   1.439   0.239
  726SOL     OW 2218   6.186   2.059   2.849
  726SOL    HW1 2219   6.216   1.968   2.830
  726SOL    HW2 2220   6.097   2.061   2.810
  727SOL     OW 2221   4.599   2.157   2.564
  727SOL    HW1 2222   4.512   2.190   2.534
  727SOL    HW2 2223   4.586   2.151   2.661
  728SOL     OW 2224   5.578   3.418   1.920
  728SOL    HW1 2225   5.573   3.325   1.947
  728SOL    HW2 2226   5.499   3.426   1.864
  729SOL     OW 2227   2.864   0.676   0.138
  729SOL    HW1 2228   2.905   0.707   0.057
  729SOL    HW2 2229   2.858   0.758   0.190
  730SOL     OW 2230   5.275   2.781   2.190
  730SOL    HW1 2231   5.302   2.782   2.096
  730SOL    HW2 2232   5.319   2.700   2.222
  731SOL     OW 2233   1.507   3.504   1.935
  731SOL    HW1 2234   1.416   3.473   1.918
  731SOL    HW2 2235   1.544   3.511   1.844
  732SOL     OW 2236   2.579   1.010   0.306
  732SOL    HW1 2237   2.545   1.085   0.257
  732SOL    HW2 2238   2.501   0.952   0.313
  733SOL     OW 2239   5.972   3.153   3.049
  733SOL    HW1 2240   6.060   3.155   3.092
  733SOL    HW2 2241   5.914   3.188   3.119
  734SOL     OW 2242   5.459   2.966   2.635
  734SOL    HW1 2243   5.373   2.927   2.658
  734SOL    HW2 2244   5.498   2.899   2.576
  735SOL     OW 2245   5.392   2.123   2.799
  735SOL    HW1 2246   5.387   2.063   2.722
  735SOL    HW2 2247   5.389   2.060   2.873
  736SOL     OW 2248   4.942   3.337   2.390
  736SOL    HW1 2249   4.983   3.289   2.315
  736SOL    HW2 2250   4.847   3.334   2.367
  737SOL     OW 2251   3.794   0.109   0.141
  737SOL    HW1 2252   3.871   0.155   0.180
  737SOL    HW2 2253   3.837   0.030   0.103
  738SOL     OW 2254   4.609   3.203   2.109
  738SOL    HW1 2255   4.513   3.186   2.120
  738SOL    HW2 2256   4.628   3.259   2.187
  739SOL     OW 2257   2.850   4.224   0.282
  739SOL    HW1 2258   2.935   4.205   0.237
  739SOL    HW2 2259   2.877   4.299   0.340
  740SOL     OW 2260   4.512   2.247   1.751
  740SOL    HW1 2261   4.435   2.244   1.809
  740SOL    HW2 2262   4.532   2.343   1.747
  741SOL     OW 2263   3.579   0.596   0.214
  741SOL    HW1 2264   3.518   0.651   0.161
  741SOL    HW2 2265   3.649   0.580   0.148
  742SOL     OW 2266   4.399   2.009   2.292
  742SOL    HW1 2267   4.356   1.965   2.215
  742SOL    HW2 2268   4.482   2.037   2.249
  743SOL     OW 2269   5.538   3.158   1.998
  743SOL    HW1 2270   5.441   3.149   1.993
  743SOL    HW2 2271   5.553   3.160   2.095
  744SOL     OW 2272   2.736   0.488   0.294
  744SOL    HW1 2273   2.787   0.562   0.255
  744SOL    HW2 2274   2.797   0.413   0.281
  745SOL     OW 2275   5.830   3.688   2.908
  745SOL    HW1 2276   5.860   3.737   2.829
  745SOL    HW2 2277   5.914   3.656   2.946
  746SOL     OW 2278   3.761   0.567   0.017
  746SOL    HW1 2279   3.760   0.479  -0.026
  746SOL    HW2 2280   3.745   0.627  -0.058
  747SOL     OW 2281   5.549   2.195   2.306
  747SOL    HW1 2282   5.610   2.119   2.310
  747SOL    HW2 2283   5.579   2.247   2.384
  748SOL     OW 2284   4.853   2.634   2.567
  748SOL    HW1 2285   4.919   2.702   2.546
  748SOL    HW2 2286   4.825   2.605   2.478
  749SOL     OW 2287   3.980   0.637   0.167
  749SOL    HW1 2288   3.926   0.682   0.234
  749SOL    HW2 2289   3.911   0.606   0.105
  750SOL     OW 2290   5.255   3.203   1.974
  750SOL    HW1 2291   5.196   3.228   2.047
  750SOL    HW2 2292   5.261   3.285   1.921
  751SOL     OW 2293   5.221   2.850   2.722
  751SOL    HW1 2294   5.263   2.766   2.747
  751SOL    HW2 2295   5.177   2.876   2.804
  752SOL     OW 2296   5.360   2.773   1.934
  752SOL    HW1 2297   5.355   2.851   1.875
  752SOL    HW2 2298   5.451   2.741   1.917
  753SOL     OW 2299   6.159   3.445   2.669
  753SOL    HW1 2300   6.082   3.440   2.610
  753SOL    HW2 2301   6.124   3.401   2.749
  754SOL     OW 2302   4.478   3.163   2.452
  754SOL    HW1 2303   4.388   3.128   2.466
  754SOL    HW2 2304   4.526   3.085   2.418
  755SOL     OW 2305   3.941   4.228   0.046
  755SOL    HW1 2306   4.026   4.221   0.093
  755SOL    HW2 2307   3.972   4.235  -0.047
  756SOL     OW 2308   4.789   2.271   2.392
  756SOL    HW1 2309   4.809   2.197   2.333
  756SOL    HW2 2310   4.726   2.232   2.456
  757SOL     OW 2311   6.007   3.366   2.884
  757SOL    HW1 2312   5.923   3.356   2.835
  757SOL    HW2 2313   6.004   3.286   2.940
  758SOL     OW 2314   2.527   0.232   0.095
  758SOL    HW1 2315   2.564   0.150   0.132
  758SOL    HW2 2316   2.507   0.207   0.002
  759SOL     OW 2317   5.169   3.458   2.493
  759SOL    HW1 2318   5.164   3.544   2.448
  759SOL    HW2 2319   5.085   3.416   2.466
  760SOL     OW 2320   5.757   2.148   2.979
  760SOL    HW1 2321   5.789   2.075   3.035
  760SOL    HW2 2322   5.702   2.198   3.043
  761SOL     OW 2323   5.386   1.915   2.986
  761SOL    HW1 2324   5.370   1.838   2.930
  761SOL    HW2 2325   5.458   1.882   3.044
  762SOL     OW 2326   5.103   3.194   2.215
  762SOL    HW1 2327   5.085   3.098   2.225
  762SOL    HW2 2328   5.188   3.205   2.260
  763SOL     OW 2329   2.754   1.244   0.112
  763SOL    HW1 2330   2.759   1.306   0.187
  763SOL    HW2 2331   2.845   1.249   0.076
  764SOL     OW 2332   5.734   1.898   2.063
  764SOL    HW1 2333   5.775   1.823   2.017
  764SOL    HW2 2334   5.642   1.866   2.072
  765SOL     OW 2335   5.628   2.338   2.525
  765SOL    HW1 2336   5.576   2.420   2.521
  765SOL    HW2 2337   5.619   2.313   2.619
  766SOL     OW 2338   5.922   2.069   2.774
  766SOL    HW1 2339   5.864   2.104   2.844
  766SOL    HW2 2340   5.918   2.139   2.707
  767SOL     OW 2341   4.407   2.892   2.211
  767SOL    HW1 2342   4.491   2.865   2.170
  767SOL    HW2 2343   4.420   2.866   2.303
  768SOL     OW 2344   5.247   3.515   2.160
  768SOL    HW1 2345   5.169   3.505   2.103
  768SOL    HW2 2346   5.214   3.577   2.228
  769SOL     OW 2347   4.551   3.984   0.967
  769SOL    HW1 2348   4.566   3.949   1.057
  769SOL    HW2 2349   4.455   3.968   0.954
  770SOL     OW 2350   4.367   4.059   0.591
  770SOL    HW1 2351   4.275   4.078   0.564
  770SOL    HW2 2352   4.367   3.962   0.580
  771SOL     OW 2353   1.653   0.065   0.169
  771SOL    HW1 2354   1.748   0.048   0.157
  771SOL    HW2 2355   1.622  -0.019   0.203
  772SOL     OW 2356   4.817   4.097   1.480
  772SOL    HW1 2357   4.894   4.037   1.479
  772SOL    HW2 2358   4.742   4.034   1.484
  773SOL     OW 2359   1.555   3.869   1.459
  773SOL    HW1 2360   1.603   3.950   1.436
  773SOL    HW2 2361   1.512   3.893   1.542
  774SOL     OW 2362   4.476   4.305   0.585
  774SOL    HW1 2363   4.433   4.217   0.589
  774SOL    HW2 2364   4.437   4.349   0.663
  775SOL     OW 2365   0.878   3.759   0.505
  775SOL    HW1 2366   0.907   3.839   0.457
  775SOL    HW2 2367   0.781   3.772   0.509
  776SOL     OW 2368   4.726   3.942   1.773
  776SOL    HW1 2369   4.711   4.026   1.820
  776SOL    HW2 2370   4.637   3.910   1.754
  777SOL     OW 2371   1.261   4.018   0.913
  777SOL    HW1 2372   1.177   3.973   0.937
  777SOL    HW2 2373   1.324   3.973   0.972
  778SOL     OW 2374   1.395   4.203   1.671
  778SOL    HW1 2375   1.417   4.255   1.750
  778SOL    HW2 2376   1.429   4.114   1.694
  779SOL     OW 2377   1.036   4.100   1.163
  779SOL    HW1 2378   0.942   4.097   1.187
  779SOL    HW2 2379   1.040   4.029   1.097
  780SOL     OW 2380   4.380   0.116   0.802
  780SOL    HW1 2381   4.438   0.154   0.870
  780SOL    HW2 2382   4.345   0.196   0.760
  781SOL     OW 2383   0.913   4.067   0.098
  781SOL    HW1 2384   0.846   4.085   0.029
  781SOL    HW2 2385   0.930   3.972   0.083
  782SOL     OW 2386   1.729   4.328   1.795
  782SOL    HW1 2387   1.713   4.313   1.889
  782SOL    HW2 2388   1.724   4.237   1.759
  783SOL     OW 2389   4.855   3.835   0.912
  783SOL    HW1 2390   4.871   3.870   1.002
  783SOL    HW2 2391   4.829   3.915   0.864
  784SOL     OW 2392   1.501   0.099   0.696
  784SOL    HW1 2393   1.553   0.172   0.732
  784SOL    HW2 2394   1.484   0.128   0.605
  785SOL     OW 2395   4.564   3.973   1.489
  785SOL    HW1 2396   4.510   4.045   1.527
  785SOL    HW2 2397   4.542   3.900   1.550
  786SOL     OW 2398   1.377   3.828   0.445
  786SOL    HW1 2399   1.372   3.822   0.348
  786SOL    HW2 2400   1.473   3.834   0.459
  787SOL     OW 2401   1.463   3.935   1.714
  787SOL    HW1 2402   1.470   3.944   1.812
  787SOL    HW2 2403   1.395   3.865   1.706
  788SOL     OW 2404   0.661   3.854   0.085
  788SOL    HW1 2405   0.756   3.832   0.091
  788SOL    HW2 2406   0.622   3.770   0.060
  789SOL     OW 2407   5.112   3.996   1.761
  789SOL    HW1 2408   5.205   3.967   1.764
  789SOL    HW2 2409   5.071   3.936   1.825
  790SOL     OW 2410   1.367   4.289   1.418
  790SOL    HW1 2411   1.374   4.254   1.508
  790SOL    HW2 2412   1.303   4.363   1.430
  791SOL     OW 2413   0.610   3.780   0.488
  791SOL    HW1 2414   0.534   3.775   0.550
  791SOL    HW2 2415   0.577   3.845   0.423
  792SOL     OW 2416   0.278   3.714   0.137
  792SOL    HW1 2417   0.286   3.810   0.145
  792SOL    HW2 2418   0.334   3.682   0.211
  793SOL     OW 2419   0.969   3.972   0.362
  793SOL    HW1 2420   0.956   4.017   0.277
  793SOL    HW2 2421   1.054   4.009   0.393
  794SOL     OW 2422   4.477   4.323   1.420
  794SOL    HW1 2423   4.569   4.311   1.390
  794SOL    HW2 2424   4.473   4.420   1.433
  795SOL     OW 2425   4.873   3.933   1.166
  795SOL    HW1 2426   4.896   3.861   1.228
  795SOL    HW2 2427   4.777   3.940   1.182
  796SOL     OW 2428   1.030   3.751   0.737
  796SOL    HW1 2429   0.973   3.755   0.658
  796SOL    HW2 2430   0.987   3.680   0.789
  797SOL     OW 2431   1.454   4.236   0.982
  797SOL    HW1 2432   1.383   4.188   1.027
  797SOL    HW2 2433   1.512   4.262   1.057
  798SOL     OW 2434   0.512   3.944   0.296
  798SOL    HW1 2435   0.571   3.923   0.222
  798SOL    HW2 2436   0.430   3.967   0.250
  799SOL     OW 2437   5.263   3.787   1.411
  799SOL    HW1 2438   5.272   3.756   1.319
  799SOL    HW2 2439   5.351   3.827   1.425
  800SOL     OW 2440   1.297   4.074   1.255
  800SOL    HW1 2441   1.321   4.152   1.308
  800SOL    HW2 2442   1.206   4.093   1.227
  801SOL     OW 2443   4.830   4.305   0.872
  801SOL    HW1 2444   4.803   4.320   0.780
  801SOL    HW2 2445   4.860   4.394   0.898
  802SOL     OW 2446   5.366   3.908   1.784
  802SOL    HW1 2447   5.411   3.975   1.730
  802SOL    HW2 2448   5.425   3.832   1.775
  803SOL     OW 2449   4.890   3.738   1.731
  803SOL    HW1 2450   4.836   3.696   1.661
  803SOL    HW2 2451   4.838   3.820   1.745
  804SOL     OW 2452   4.607   3.908   1.225
  804SOL    HW1 2453   4.587   3.938   1.315
  804SOL    HW2 2454   4.574   3.816   1.227
  805SOL     OW 2455   0.772   4.321   0.962
  805SOL    HW1 2456   0.707   4.269   0.912
  805SOL    HW2 2457   0.730   4.409   0.959
  806SOL     OW 2458   4.710   3.764   0.623
  806SOL    HW1 2459   4.667   3.848   0.647
  806SOL    HW2 2460   4.680   3.706   0.695
  807SOL     OW 2461   1.520   4.098   0.556
  807SOL    HW1 2462   1.569   4.015   0.540
  807SOL    HW2 2463   1.499   4.126   0.465
  808SOL     OW 2464   1.579   3.967   0.132
  808SOL    HW1 2465   1.508   3.902   0.140
  808SOL    HW2 2466   1.545   4.038   0.188
  809SOL     OW 2467   4.651   4.220   1.057
  809SOL    HW1 2468   4.619   4.136   1.018
  809SOL    HW2 2469   4.715   4.249   0.990
  810SOL     OW 2470   5.479   4.099   1.626
  810SOL    HW1 2471   5.415   4.174   1.627
  810SOL    HW2 2472   5.563   4.144   1.646
  811SOL     OW 2473   1.178   3.899   1.447
  811SOL    HW1 2474   1.164   3.974   1.508
  811SOL    HW2 2475   1.230   3.940   1.376
  812SOL     OW 2476   4.407   4.315   1.149
  812SOL    HW1 2477   4.495   4.285   1.118
  812SOL    HW2 2478   4.412   4.297   1.244
  813SOL     OW 2479   4.413   4.164   1.625
  813SOL    HW1 2480   4.440   4.221   1.550
  813SOL    HW2 2481   4.336   4.216   1.657
  814SOL     OW 2482   0.743   4.293   0.243
  814SOL    HW1 2483   0.778   4.204   0.257
  814SOL    HW2 2484   0.707   4.316   0.331
  815SOL     OW 2485   1.616   4.302   1.193
  815SOL    HW1 2486   1.607   4.236   1.263
  815SOL    HW2 2487   1.702   4.278   1.153
  816SOL     OW 2488   5.096   4.104   1.174
  816SOL    HW1 2489   5.020   4.043   1.177
  816SOL    HW2 2490   5.065   4.174   1.116
  817SOL     OW 2491   0.930   3.793   0.074
  817SOL    HW1 2492   0.944   3.731  -0.000
  817SOL    HW2 2493   1.000   3.764   0.135
  818SOL     OW 2494   1.651   3.864   0.515
  818SOL    HW1 2495   1.729   3.856   0.455
  818SOL    HW2 2496   1.649   3.774   0.554
  819SOL     OW 2497   1.818   3.889   0.989
  819SOL    HW1 2498   1.840   3.799   0.959
  819SOL    HW2 2499   1.740   3.911   0.935
  820SOL     OW 2500   4.614   4.003   0.704
  820SOL    HW1 2501   4.527   4.030   0.668
  820SOL    HW2 2502   4.595   3.999   0.800
  821SOL     OW 2503   1.037   3.889   0.984
  821SOL    HW1 2504   1.027   3.845   0.898
  821SOL    HW2 2505   1.006   3.819   1.045
  822SOL     OW 2506   1.738   4.079   1.423
  822SOL    HW1 2507   1.804   4.149   1.411
  822SOL    HW2 2508   1.774   4.009   1.364
  823SOL     OW 2509   5.037   3.923   1.503
  823SOL    HW1 2510   5.120   3.885   1.468
  823SOL    HW2 2511   5.063   3.950   1.592
  824SOL     OW 2512   4.343   4.014   0.086
  824SOL    HW1 2513   4.288   4.091   0.112
  824SOL    HW2 2514   4.321   4.005  -0.007
  825SOL     OW 2515   4.300   3.835   0.288
  825SOL    HW1 2516   4.312   3.907   0.224
  825SOL    HW2 2517   4.322   3.757   0.234
  826SOL     OW 2518   5.065   4.275   1.749
  826SOL    HW1 2519   4.975   4.282   1.714
  826SOL    HW2 2520   5.078   4.178   1.755
  827SOL     OW 2521   1.217   4.056   0.455
  827SOL    HW1 2522   1.266   3.975   0.474
  827SOL    HW2 2523   1.219   4.103   0.541
  828SOL     OW 2524   1.711   4.071   1.696
  828SOL    HW1 2525   1.720   4.074   1.599
  828SOL    HW2 2526   1.635   4.012   1.708
  829SOL     OW 2527   1.827   3.887   1.260
  829SOL    HW1 2528   1.840   3.791   1.265
  829SOL    HW2 2529   1.819   3.901   1.164
  830SOL     OW 2530   0.436   4.118   0.501
  830SOL    HW1 2531   0.479   4.047   0.450
  830SOL    HW2 2532   0.398   4.071   0.578
  831SOL     OW 2533   4.720   4.292   1.310
  831SOL    HW1 2534   4.770   4.225   1.361
  831SOL    HW2 2535   4.711   4.249   1.223
  832SOL     OW 2536   1.446   3.911   1.079
  832SOL    HW1 2537   1.457   3.819   1.110
  832SOL    HW2 2538   1.409   3.954   1.159
  833SOL     OW 2539   0.978   3.682   1.160
  833SOL    HW1 2540   0.919   3.606   1.159
  833SOL    HW2 2541   1.061   3.643   1.126
  834SOL     OW 2542   1.345   3.811   0.168
  834SOL    HW1 2543   1.351   3.818   0.071
  834SOL    HW2 2544   1.259   3.767   0.179
  835SOL     OW 2545   1.229   4.188   0.709
  835SOL    HW1 2546   1.158   4.250   0.732
  835SOL    HW2 2547   1.223   4.124   0.783
  836SOL     OW 2548   1.583   3.966   0.846
  836SOL    HW1 2549   1.539   3.960   0.934
  836SOL    HW2 2550   1.533   3.901   0.795
  837SOL     OW 2551   4.542   3.992   2.968
  837SOL    HW1 2552   4.597   3.967   2.891
  837SOL    HW2 2553   4.465   3.933   2.959
  838SOL     OW 2554   4.366   4.055   2.505
  838SOL    HW1 2555   4.308   4.010   2.570
  838SOL    HW2 2556   4.348   4.006   2.423
  839SOL     OW 2557   1.610   0.002   2.094
  839SOL    HW1 2558   1.700   0.033   2.120
  839SOL    HW2 2559   1.604  -0.084   2.140
  840SOL     OW 2560   5.957   4.127   2.609
  840SOL    HW1 2561   5.880   4.142   2.551
  840SOL    HW2 2562   5.939   4.190   2.681
  841SOL     OW 2563   3.843   1.626   0.311
  841SOL    HW1 2564   3.871   1.647   0.220
  841SOL    HW2 2565   3.928   1.613   0.357
  842SOL     OW 2566   4.483   4.304   2.515
  842SOL    HW1 2567   4.431   4.221   2.519
  842SOL    HW2 2568   4.438   4.360   2.580
  843SOL     OW 2569   5.151   3.684   2.347
  843SOL    HW1 2570   5.202   3.768   2.345
  843SOL    HW2 2571   5.059   3.718   2.337
  844SOL     OW 2572   5.606   4.114   2.759
  844SOL    HW1 2573   5.517   4.075   2.767
  844SOL    HW2 2574   5.655   4.054   2.819
  845SOL     OW 2575   5.345   4.141   3.016
  845SOL    HW1 2576   5.251   4.127   3.042
  845SOL    HW2 2577   5.354   4.079   2.941
  846SOL     OW 2578   4.358   0.155   2.676
  846SOL    HW1 2579   4.368   0.244   2.636
  846SOL    HW2 2580   4.264   0.138   2.658
  847SOL     OW 2581   5.188   4.000   2.086
  847SOL    HW1 2582   5.261   4.002   2.023
  847SOL    HW2 2583   5.131   3.931   2.049
  848SOL     OW 2584   4.719   4.000   2.758
  848SOL    HW1 2585   4.778   3.928   2.789
  848SOL    HW2 2586   4.775   4.079   2.769
  849SOL     OW 2587   5.812   0.096   2.575
  849SOL    HW1 2588   5.816   0.049   2.661
  849SOL    HW2 2589   5.861   0.176   2.598
  850SOL     OW 2590   5.739   3.833   2.330
  850SOL    HW1 2591   5.739   3.802   2.237
  850SOL    HW2 2592   5.823   3.796   2.363
  851SOL     OW 2593   5.014   3.807   1.962
  851SOL    HW1 2594   5.037   3.722   2.003
  851SOL    HW2 2595   4.970   3.775   1.880
  852SOL     OW 2596   3.484   2.112   0.241
  852SOL    HW1 2597   3.562   2.124   0.298
  852SOL    HW2 2598   3.436   2.196   0.256
  853SOL     OW 2599   4.902   3.777   2.301
  853SOL    HW1 2600   4.835   3.766   2.372
  853SOL    HW2 2601   4.877   3.862   2.262
  854SOL     OW 2602   4.588   3.794   2.048
  854SOL    HW1 2603   4.649   3.870   2.052
  854SOL    HW2 2604   4.649   3.723   2.076
  855SOL     OW 2605   5.287   3.915   2.339
  855SOL    HW1 2606   5.254   3.959   2.258
  855SOL    HW2 2607   5.376   3.954   2.348
  856SOL     OW 2608   2.166   2.097   0.166
  856SOL    HW1 2609   2.254   2.063   0.186
  856SOL    HW2 2610   2.174   2.191   0.192
  857SOL     OW 2611   2.759   1.747   0.068
  857SOL    HW1 2612   2.752   1.693  -0.014
  857SOL    HW2 2613   2.667   1.742   0.100
  858SOL     OW 2614   5.383   3.798   2.592
  858SOL    HW1 2615   5.325   3.825   2.519
  858SOL    HW2 2616   5.337   3.721   2.631
  859SOL     OW 2617   5.828   4.281   2.804
  859SOL    HW1 2618   5.744   4.234   2.815
  859SOL    HW2 2619   5.865   4.282   2.895
  860SOL     OW 2620   4.817   3.964   2.087
  860SOL    HW1 2621   4.888   3.914   2.043
  860SOL    HW2 2622   4.805   4.040   2.027
  861SOL     OW 2623   3.154   1.600   0.154
  861SOL    HW1 2624   3.172   1.594   0.058
  861SOL    HW2 2625   3.235   1.641   0.189
  862SOL     OW 2626   3.422   1.917   0.070
  862SOL    HW1 2627   3.446   1.993   0.127
  862SOL    HW2 2628   3.337   1.947   0.031
  863SOL     OW 2629   4.826   4.253   2.777
  863SOL    HW1 2630   4.807   4.298   2.692
  863SOL    HW2 2631   4.915   4.287   2.797
  864SOL     OW 2632   2.489   1.723   0.135
  864SOL    HW1 2633   2.450   1.771   0.059
  864SOL    HW2 2634   2.464   1.631   0.114
  865SOL     OW 2635   5.079   0.030   2.826
  865SOL    HW1 2636   5.159   0.033   2.770
  865SOL    HW2 2637   5.034   0.114   2.801
  866SOL     OW 2638   4.690   3.745   2.469
  866SOL    HW1 2639   4.669   3.839   2.489
  866SOL    HW2 2640   4.682   3.704   2.558
  867SOL     OW 2641   5.897   4.097   2.221
  867SOL    HW1 2642   5.969   4.041   2.259
  867SOL    HW2 2643   5.827   4.083   2.286
  868SOL     OW 2644   1.487   3.979   1.977
  868SOL    HW1 2645   1.454   3.895   2.015
  868SOL    HW2 2646   1.517   4.026   2.056
  869SOL     OW 2647   4.593   4.254   2.935
  869SOL    HW1 2648   4.576   4.157   2.936
  869SOL    HW2 2649   4.671   4.260   2.877
  870SOL     OW 2650   3.356   1.756   0.281
  870SOL    HW1 2651   3.300   1.818   0.328
  870SOL    HW2 2652   3.387   1.809   0.205
  871SOL     OW 2653   4.331   0.003   2.963
  871SOL    HW1 2654   4.425  -0.012   2.945
  871SOL    HW2 2655   4.323  -0.029   3.054
  872SOL     OW 2656   5.073   4.261   2.125
  872SOL    HW1 2657   5.113   4.173   2.126
  872SOL    HW2 2658   5.041   4.272   2.216
  873SOL     OW 2659   5.939   4.284   3.057
  873SOL    HW1 2660   5.912   4.227   3.130
  873SOL    HW2 2661   6.029   4.248   3.037
  874SOL     OW 2662   5.069   4.129   3.053
  874SOL    HW1 2663   5.024   4.048   3.084
  874SOL    HW2 2664   5.043   4.133   2.961
  875SOL     OW 2665   1.754   3.927   2.321
  875SOL    HW1 2666   1.808   3.902   2.243
  875SOL    HW2 2667   1.722   3.841   2.352
  876SOL     OW 2668   6.147   3.879   2.857
  876SOL    HW1 2669   6.183   3.791   2.831
  876SOL    HW2 2670   6.064   3.883   2.805
  877SOL     OW 2671   4.632   4.004   2.506
  877SOL    HW1 2672   4.539   4.030   2.515
  877SOL    HW2 2673   4.664   4.010   2.599
  878SOL     OW 2674   5.388   3.958   2.816
  878SOL    HW1 2675   5.384   3.914   2.729
  878SOL    HW2 2676   5.378   3.879   2.874
  879SOL     OW 2677   3.872   1.913   0.230
  879SOL    HW1 2678   3.964   1.948   0.234
  879SOL    HW2 2679   3.881   1.845   0.161
  880SOL     OW 2680   2.908   1.627   0.264
  880SOL    HW1 2681   2.996   1.620   0.220
  880SOL    HW2 2682   2.858   1.677   0.196
  881SOL     OW 2683   4.433   4.126   1.903
  881SOL    HW1 2684   4.383   4.048   1.935
  881SOL    HW2 2685   4.421   4.122   1.807
  882SOL     OW 2686   4.361   3.897   2.274
  882SOL    HW1 2687   4.340   3.913   2.181
  882SOL    HW2 2688   4.450   3.862   2.269
  883SOL     OW 2689   5.538   4.015   2.358
  883SOL    HW1 2690   5.606   3.946   2.347
  883SOL    HW2 2691   5.587   4.082   2.408
  884SOL     OW 2692   3.912   1.694   0.058
  884SOL    HW1 2693   3.911   1.600   0.031
  884SOL    HW2 2694   3.943   1.734  -0.025
  885SOL     OW 2695   4.676   4.120   2.265
  885SOL    HW1 2696   4.735   4.062   2.215
  885SOL    HW2 2697   4.672   4.079   2.353
  886SOL     OW 2698   2.471   2.112   0.138
  886SOL    HW1 2699   2.569   2.112   0.137
  886SOL    HW2 2700   2.452   2.089   0.045
  887SOL     OW 2701   5.733   3.957   2.938
  887SOL    HW1 2702   5.740   3.864   2.962
  887SOL    HW2 2703   5.686   3.995   3.016
  888SOL     OW 2704   5.365   3.721   2.949
  888SOL    HW1 2705   5.314   3.668   2.885
  888SOL    HW2 2706   5.448   3.667   2.953
  889SOL     OW 2707   5.733   3.740   2.074
  889SOL    HW1 2708   5.777   3.670   2.024
  889SOL    HW2 2709   5.643   3.703   2.083
  890SOL     OW 2710   5.701   4.182   2.508
  890SOL    HW1 2711   5.721   4.277   2.517
  890SOL    HW2 2712   5.661   4.160   2.595
  891SOL     OW 2713   5.908   3.890   2.735
  891SOL    HW1 2714   5.844   3.929   2.797
  891SOL    HW2 2715   5.926   3.964   2.675
  892SOL     OW 2716   2.086   0.661   0.157
  892SOL    HW1 2717   1.991   0.654   0.178
  892SOL    HW2 2718   2.096   0.754   0.132
  893SOL     OW 2719   2.076   0.302   1.032
  893SOL    HW1 2720   2.108   0.266   1.117
  893SOL    HW2 2721   1.983   0.274   1.032
  894SOL     OW 2722   1.858   0.317   0.691
  894SOL    HW1 2723   1.781   0.344   0.743
  894SOL    HW2 2724   1.818   0.298   0.605
  895SOL     OW 2725   2.445   1.318   1.248
  895SOL    HW1 2726   2.364   1.316   1.193
  895SOL    HW2 2727   2.454   1.414   1.262
  896SOL     OW 2728   3.466   1.568   0.683
  896SOL    HW1 2729   3.430   1.534   0.768
  896SOL    HW2 2730   3.383   1.597   0.640
  897SOL     OW 2731   2.990   0.708   0.699
  897SOL    HW1 2732   3.030   0.797   0.691
  897SOL    HW2 2733   2.941   0.716   0.782
  898SOL     OW 2734   2.592   1.126   1.119
  898SOL    HW1 2735   2.535   1.180   1.178
  898SOL    HW2 2736   2.622   1.196   1.059
  899SOL     OW 2737   2.763   0.719   1.794
  899SOL    HW1 2738   2.798   0.780   1.861
  899SOL    HW2 2739   2.771   0.774   1.714
  900SOL     OW 2740   2.521   0.911   0.735
  900SOL    HW1 2741   2.597   0.944   0.786
  900SOL    HW2 2742   2.472   0.993   0.716
  901SOL     OW 2743   2.557   1.143   1.843
  901SOL    HW1 2744   2.592   1.227   1.879
  901SOL    HW2 2745   2.482   1.176   1.790
  902SOL     OW 2746   2.226   1.372   1.085
  902SOL    HW1 2747   2.170   1.315   1.031
  902SOL    HW2 2748   2.265   1.432   1.017
  903SOL     OW 2749   3.289   1.504   1.372
  903SOL    HW1 2750   3.345   1.581   1.394
  903SOL    HW2 2751   3.213   1.516   1.433
  904SOL     OW 2752   2.237   0.296   1.543
  904SOL    HW1 2753   2.332   0.277   1.527
  904SOL    HW2 2754   2.231   0.282   1.640
  905SOL     OW 2755   3.433   0.516   0.701
  905SOL    HW1 2756   3.336   0.507   0.691
  905SOL    HW2 2757   3.453   0.574   0.625
  906SOL     OW 2758   2.120   1.712   0.449
  906SOL    HW1 2759   2.134   1.789   0.508
  906SOL    HW2 2760   2.212   1.691   0.423
  907SOL     OW 2761   2.962   1.324   1.679
  907SOL    HW1 2762   3.016   1.274   1.616
  907SOL    HW2 2763   2.911   1.252   1.721
  908SOL     OW 2764   1.993   1.491   0.558
  908SOL    HW1 2765   2.035   1.572   0.523
  908SOL    HW2 2766   1.963   1.519   0.645
  909SOL     OW 2767   2.153   1.075   0.869
  909SOL    HW1 2768   2.174   0.983   0.894
  909SOL    HW2 2769   2.098   1.104   0.944
  910SOL     OW 2770   2.401   1.844   1.381
  910SOL    HW1 2771   2.331   1.822   1.446
  910SOL    HW2 2772   2.454   1.910   1.429
  911SOL     OW 2773   3.404   0.169   1.370
  911SOL    HW1 2774   3.343   0.093   1.375
  911SOL    HW2 2775   3.389   0.211   1.455
  912SOL     OW 2776   1.977   0.697   0.580
  912SOL    HW1 2777   1.965   0.603   0.597
  912SOL    HW2 2778   1.970   0.735   0.670
  913SOL     OW 2779   1.950   1.566   0.024
  913SOL    HW1 2780   1.928   1.482   0.068
  913SOL    HW2 2781   1.941   1.629   0.099
  914SOL     OW 2782   3.552   0.961   0.686
  914SOL    HW1 2783   3.577   0.917   0.604
  914SOL    HW2 2784   3.556   1.055   0.661
  915SOL     OW 2785   2.066   0.750   1.590
  915SOL    HW1 2786   2.162   0.758   1.608
  915SOL    HW2 2787   2.032   0.835   1.624
  916SOL     OW 2788   2.492   1.373   0.752
  916SOL    HW1 2789   2.452   1.287   0.729
  916SOL    HW2 2790   2.512   1.410   0.663
  917SOL     OW 2791   3.088   1.201   1.467
  917SOL    HW1 2792   3.101   1.140   1.392
  917SOL    HW2 2793   3.175   1.196   1.511
  918SOL     OW 2794   2.716   0.207   0.601
  918SOL    HW1 2795   2.698   0.303   0.606
  918SOL    HW2 2796   2.636   0.174   0.555
  919SOL     OW 2797   2.056   0.999   1.301
  919SOL    HW1 2798   2.136   0.943   1.296
  919SOL    HW2 2799   2.048   1.033   1.211
  920SOL     OW 2800   3.001   1.784   1.629
  920SOL    HW1 2801   3.021   1.852   1.563
  920SOL    HW2 2802   3.027   1.701   1.585
  921SOL     OW 2803   2.192   0.266   1.817
  921SOL    HW1 2804   2.239   0.334   1.869
  921SOL    HW2 2805   2.164   0.205   1.888
  922SOL     OW 2806   3.361   1.472   0.914
  922SOL    HW1 2807   3.292   1.484   0.982
  922SOL    HW2 2808   3.352   1.377   0.893
  923SOL     OW 2809   3.562   1.732   0.473
  923SOL    HW1 2810   3.487   1.724   0.411
  923SOL    HW2 2811   3.533   1.675   0.546
  924SOL     OW 2812   3.141   0.412   0.950
  924SOL    HW1 2813   3.055   0.367   0.958
  924SOL    HW2 2814   3.196   0.361   1.012
  925SOL     OW 2815   2.652   0.637   1.437
  925SOL    HW1 2816   2.618   0.595   1.518
  925SOL    HW2 2817   2.633   0.570   1.368
  926SOL     OW 2818   3.238   0.462   1.658
  926SOL    HW1 2819   3.242   0.500   1.748
  926SOL    HW2 2820   3.299   0.386   1.665
  927SOL     OW 2821   2.811   0.896   1.585
  927SOL    HW1 2822   2.868   0.836   1.534
  927SOL    HW2 2823   2.765   0.943   1.512
  928SOL     OW 2824   2.877   0.449   1.199
  928SOL    HW1 2825   2.782   0.468   1.210
  928SOL    HW2 2826   2.877   0.398   1.117
  929SOL     OW 2827   2.986   0.695   0.425
  929SOL    HW1 2828   2.980   0.691   0.522
  929SOL    HW2 2829   2.930   0.771   0.404
  930SOL     OW 2830   1.957   0.800   0.828
  930SOL    HW1 2831   2.043   0.809   0.873
  930SOL    HW2 2832   1.904   0.867   0.873
  931SOL     OW 2833   1.952   1.885   1.584
  931SOL    HW1 2834   1.953   1.849   1.676
  931SOL    HW2 2835   1.857   1.897   1.569
  932SOL     OW 2836   3.634   0.590   1.760
  932SOL    HW1 2837   3.569   0.662   1.743
  932SOL    HW2 2838   3.716   0.634   1.734
  933SOL     OW 2839   3.203   1.199   0.622
  933SOL    HW1 2840   3.246   1.191   0.534
  933SOL    HW2 2841   3.132   1.261   0.603
  934SOL     OW 2842   2.506   0.259   0.977
  934SOL    HW1 2843   2.469   0.276   1.065
  934SOL    HW2 2844   2.466   0.329   0.923
  935SOL     OW 2845   2.967   1.577   0.526
  935SOL    HW1 2846   2.953   1.601   0.432
  935SOL    HW2 2847   2.881   1.600   0.565
  936SOL     OW 2848   2.217   1.788   0.869
  936SOL    HW1 2849   2.259   1.701   0.875
  936SOL    HW2 2850   2.291   1.848   0.893
  937SOL     OW 2851   3.663   1.011   0.931
  937SOL    HW1 2852   3.620   0.995   0.845
  937SOL    HW2 2853   3.587   1.036   0.987
  938SOL     OW 2854   3.048   1.534   1.512
  938SOL    HW1 2855   3.031   1.472   1.585
  938SOL    HW2 2856   2.990   1.498   1.443
  939SOL     OW 2857   3.317   0.823   0.752
  939SOL    HW1 2858   3.325   0.760   0.825
  939SOL    HW2 2859   3.407   0.857   0.741
  940SOL     OW 2860   2.349   1.279   1.728
  940SOL    HW1 2861   2.311   1.279   1.638
  940SOL    HW2 2862   2.268   1.298   1.779
  941SOL     OW 2863   1.997   0.144   1.655
  941SOL    HW1 2864   1.987   0.214   1.588
  941SOL    HW2 2865   2.060   0.185   1.717
  942SOL     OW 2866   2.394   1.692   0.390
  942SOL    HW1 2867   2.416   1.777   0.432
  942SOL    HW2 2868   2.428   1.705   0.299
  943SOL     OW 2869   2.068   1.779   1.216
  943SOL    HW1 2870   2.136   1.713   1.236
  943SOL    HW2 2871   2.050   1.764   1.122
  944SOL     OW 2872   2.820   1.699   0.895
  944SOL    HW1 2873   2.902   1.646   0.897
  944SOL    HW2 2874   2.780   1.666   0.812
  945SOL     OW 2875   2.246   0.694   0.496
  945SOL    HW1 2876   2.246   0.598   0.515
  945SOL    HW2 2877   2.154   0.717   0.517
  946SOL     OW 2878   3.404   0.240   1.697
  946SOL    HW1 2879   3.403   0.263   1.792
  946SOL    HW2 2880   3.398   0.144   1.702
  947SOL     OW 2881   2.569   0.299   1.757
  947SOL    HW1 2882   2.658   0.264   1.774
  947SOL    HW2 2883   2.517   0.247   1.821
  948SOL     OW 2884   2.698   1.520   1.201
  948SOL    HW1 2885   2.680   1.467   1.121
  948SOL    HW2 2886   2.774   1.475   1.240
  949SOL     OW 2887   3.193   0.602   1.427
  949SOL    HW1 2888   3.220   0.568   1.514
  949SOL    HW2 2889   3.224   0.694   1.427
  950SOL     OW 2890   2.653   1.352   0.979
  950SOL    HW1 2891   2.743   1.354   0.943
  950SOL    HW2 2892   2.598   1.365   0.899
  951SOL     OW 2893   2.778   0.507   0.871
  951SOL    HW1 2894   2.750   0.491   0.779
  951SOL    HW2 2895   2.806   0.419   0.900
  952SOL     OW 2896   2.503   0.117   0.458
  952SOL    HW1 2897   2.434   0.096   0.524
  952SOL    HW2 2898   2.475   0.206   0.428
  953SOL     OW 2899   2.941   0.713   1.434
  953SOL    HW1 2900   2.882   0.637   1.435
  953SOL    HW2 2901   3.029   0.672   1.424
  954SOL     OW 2902   3.041   1.553   0.789
  954SOL    HW1 2903   3.020   1.560   0.694
  954SOL    HW2 2904   3.132   1.586   0.791
  955SOL     OW 2905   2.358   1.138   0.699
  955SOL    HW1 2906   2.289   1.121   0.764
  955SOL    HW2 2907   2.308   1.131   0.615
  956SOL     OW 2908   3.111   1.894   0.609
  956SOL    HW1 2909   3.109   1.977   0.558
  956SOL    HW2 2910   3.039   1.908   0.672
  957SOL     OW 2911   1.985   0.571   1.397
  957SOL    HW1 2912   2.074   0.562   1.360
  957SOL    HW2 2913   2.000   0.641   1.463
  958SOL     OW 2914   2.413   0.311   1.239
  958SOL    HW1 2915   2.451   0.273   1.321
  958SOL    HW2 2916   2.323   0.272   1.240
  959SOL     OW 2917   2.679   0.480   0.607
  959SOL    HW1 2918   2.605   0.542   0.621
  959SOL    HW2 2919   2.711   0.506   0.520
  960SOL     OW 2920   2.833   0.082   0.806
  960SOL    HW1 2921   2.790   0.127   0.730
  960SOL    HW2 2922   2.894   0.022   0.761
  961SOL     OW 2923   3.370   1.214   0.837
  961SOL    HW1 2924   3.302   1.198   0.769
  961SOL    HW2 2925   3.451   1.216   0.783
  962SOL     OW 2926   3.282   0.655   0.973
  962SOL    HW1 2927   3.232   0.572   0.965
  962SOL    HW2 2928   3.351   0.633   1.039
  963SOL     OW 2929   3.794   0.733   0.345
  963SOL    HW1 2930   3.801   0.706   0.439
  963SOL    HW2 2931   3.713   0.688   0.317
  964SOL     OW 2932   3.587   1.236   0.671
  964SOL    HW1 2933   3.685   1.230   0.673
  964SOL    HW2 2934   3.572   1.315   0.617
  965SOL     OW 2935   2.456   0.374   0.386
  965SOL    HW1 2936   2.540   0.411   0.356
  965SOL    HW2 2937   2.392   0.414   0.324
  966SOL     OW 2938   3.572   1.241   1.509
  966SOL    HW1 2939   3.661   1.203   1.499
  966SOL    HW2 2940   3.595   1.330   1.541
  967SOL     OW 2941   2.891   1.358   1.350
  967SOL    HW1 2942   2.805   1.331   1.388
  967SOL    HW2 2943   2.953   1.299   1.397
  968SOL     OW 2944   3.467   1.610   1.681
  968SOL    HW1 2945   3.450   1.657   1.597
  968SOL    HW2 2946   3.546   1.560   1.658
  969SOL     OW 2947   3.030   1.275   1.129
  969SOL    HW1 2948   2.968   1.307   1.197
  969SOL    HW2 2949   2.982   1.293   1.046
  970SOL     OW 2950   3.449   1.099   1.075
  970SOL    HW1 2951   3.443   1.173   1.138
  970SOL    HW2 2952   3.403   1.135   0.997
  971SOL     OW 2953   2.735   0.174   1.388
  971SOL    HW1 2954   2.753   0.141   1.299
  971SOL    HW2 2955   2.824   0.177   1.426
  972SOL     OW 2956   2.825   1.100   1.766
  972SOL    HW1 2957   2.731   1.110   1.789
  972SOL    HW2 2958   2.821   1.031   1.696
  973SOL     OW 2959   2.280   0.842   1.294
  973SOL    HW1 2960   2.349   0.850   1.363
  973SOL    HW2 2961   2.260   0.746   1.297
  974SOL     OW 2962   3.111   0.382   1.303
  974SOL    HW1 2963   3.143   0.464   1.345
  974SOL    HW2 2964   3.026   0.412   1.264
  975SOL     OW 2965   1.928   1.554   1.347
  975SOL    HW1 2966   1.920   1.645   1.316
  975SOL    HW2 2967   2.025   1.543   1.346
  976SOL     OW 2968   2.194   1.117   0.477
  976SOL    HW1 2969   2.161   1.196   0.430
  976SOL    HW2 2970   2.234   1.066   0.406
  977SOL     OW 2971   2.398   0.487   0.860
  977SOL    HW1 2972   2.408   0.523   0.770
  977SOL    HW2 2973   2.457   0.546   0.910
  978SOL     OW 2974   3.190   1.495   1.121
  978SOL    HW1 2975   3.227   1.498   1.211
  978SOL    HW2 2976   3.138   1.412   1.124
  979SOL     OW 2977   3.484   0.652   0.470
  979SOL    HW1 2978   3.399   0.688   0.439
  979SOL    HW2 2979   3.522   0.622   0.386
  980SOL     OW 2980   2.191   1.518   1.308
  980SOL    HW1 2981   2.198   1.462   1.228
  980SOL    HW2 2982   2.284   1.548   1.316
  981SOL     OW 2983   2.335   0.750   1.659
  981SOL    HW1 2984   2.387   0.799   1.593
  981SOL    HW2 2985   2.397   0.678   1.682
  982SOL     OW 2986   3.485   0.803   1.703
  982SOL    HW1 2987   3.393   0.833   1.701
  982SOL    HW2 2988   3.521   0.851   1.625
  983SOL     OW 2989   2.796   0.163   1.819
  983SOL    HW1 2990   2.877   0.187   1.772
  983SOL    HW2 2991   2.783   0.069   1.795
  984SOL     OW 2992   2.461   4.297   1.663
  984SOL    HW1 2993   2.413   4.225   1.618
  984SOL    HW2 2994   2.459   4.367   1.597
  985SOL     OW 2995   2.437   0.896   1.075
  985SOL    HW1 2996   2.488   0.978   1.086
  985SOL    HW2 2997   2.385   0.891   1.158
  986SOL     OW 2998   3.106   0.851   1.053
  986SOL    HW1 2999   3.027   0.818   1.009
  986SOL    HW2 3000   3.175   0.792   1.020
  987SOL     OW 3001   3.092   0.501   0.250
  987SOL    HW1 3002   3.040   0.419   0.256
  987SOL    HW2 3003   3.044   0.561   0.309
  988SOL     OW 3004   2.164   0.218   1.286
  988SOL    HW1 3005   2.168   0.253   1.377
  988SOL    HW2 3006   2.170   0.122   1.302
  989SOL     OW 3007   1.870   1.295   1.277
  989SOL    HW1 3008   1.905   1.251   1.356
  989SOL    HW2 3009   1.889   1.389   1.296
  990SOL     OW 3010   2.546   0.657   1.004
  990SOL    HW1 3011   2.623   0.674   0.947
  990SOL    HW2 3012   2.514   0.747   1.023
  991SOL     OW 3013   3.599   0.986   1.875
  991SOL    HW1 3014   3.556   0.916   1.823
  991SOL    HW2 3015   3.532   1.006   1.942
  992SOL     OW 3016   2.305   0.080   0.640
  992SOL    HW1 3017   2.236   0.139   0.676
  992SOL    HW2 3018   2.254   0.005   0.604
  993SOL     OW 3019   2.863   0.745   0.958
  993SOL    HW1 3020   2.838   0.750   1.053
  993SOL    HW2 3021   2.838   0.653   0.935
  994SOL     OW 3022   2.844   1.535   1.811
  994SOL    HW1 3023   2.821   1.605   1.748
  994SOL    HW2 3024   2.876   1.463   1.753
  995SOL     OW 3025   3.691   1.483   1.569
  995SOL    HW1 3026   3.728   1.512   1.484
  995SOL    HW2 3027   3.766   1.504   1.628
  996SOL     OW 3028   2.220   0.930   1.835
  996SOL    HW1 3029   2.288   0.955   1.899
  996SOL    HW2 3030   2.266   0.864   1.780
  997SOL     OW 3031   2.908   1.347   0.899
  997SOL    HW1 3032   2.912   1.274   0.833
  997SOL    HW2 3033   2.960   1.418   0.856
  998SOL     OW 3034   2.198   0.819   0.958
  998SOL    HW1 3035   2.288   0.843   0.986
  998SOL    HW2 3036   2.194   0.725   0.981
  999SOL     OW 3037   2.188   0.548   1.017
  999SOL    HW1 3038   2.137   0.464   1.018
  999SOL    HW2 3039   2.260   0.524   0.954
 1000SOL     OW 3040   2.996   0.327   1.686
 1000SOL    HW1 3041   2.952   0.383   1.753
 1000SOL    HW2 3042   3.079   0.375   1.673
 1001SOL     OW 3043   3.007   0.184   1.454
 1001SOL    HW1 3044   3.000   0.228   1.541
 1001SOL    HW2 3045   3.047   0.256   1.400
 1002SOL     OW 3046   1.864   1.342   0.175
 1002SOL    HW1 3047   1.773   1.372   0.153
 1002SOL    HW2 3048   1.848   1.250   0.200
 1003SOL     OW 3049   1.963   1.756   0.953
 1003SOL    HW1 3050   1.931   1.687   0.892
 1003SOL    HW2 3051   2.052   1.773   0.918
 1004SOL     OW 3052   2.345   1.542   0.908
 1004SOL    HW1 3053   2.419   1.600   0.935
 1004SOL    HW2 3054   2.391   1.482   0.846
 1005SOL     OW 3055   2.784   0.776   1.212
 1005SOL    HW1 3056   2.860   0.781   1.273
 1005SOL    HW2 3057   2.718   0.737   1.270
 1006SOL     OW 3058   1.836   0.641   1.172
 1006SOL    HW1 3059   1.907   0.642   1.107
 1006SOL    HW2 3060   1.882   0.616   1.254
 1007SOL     OW 3061   2.039   0.525   1.736
 1007SOL    HW1 3062   2.112   0.476   1.697
 1007SOL    HW2 3063   2.039   0.607   1.683
 1008SOL     OW 3064   3.242   0.917   1.669
 1008SOL    HW1 3065   3.262   1.012   1.661
 1008SOL    HW2 3066   3.233   0.893   1.574
 1009SOL     OW 3067   3.466   0.601   1.169
 1009SOL    HW1 3068   3.421   0.568   1.248
 1009SOL    HW2 3069   3.549   0.550   1.169
 1010SOL     OW 3070   2.075   1.561   1.684
 1010SOL    HW1 3071   2.051   1.631   1.748
 1010SOL    HW2 3072   2.101   1.488   1.742
 1011SOL     OW 3073   2.609   0.495   1.213
 1011SOL    HW1 3074   2.541   0.425   1.211
 1011SOL    HW2 3075   2.585   0.549   1.135
 1012SOL     OW 3076   2.694   1.717   1.544
 1012SOL    HW1 3077   2.682   1.649   1.477
 1012SOL    HW2 3078   2.730   1.791   1.493
 1013SOL     OW 3079   2.279   0.481   0.211
 1013SOL    HW1 3080   2.336   0.543   0.162
 1013SOL    HW2 3081   2.195   0.532   0.207
 1014SOL     OW 3082   1.967   1.152   1.498
 1014SOL    HW1 3083   1.982   1.098   1.579
 1014SOL    HW2 3084   2.005   1.092   1.429
 1015SOL     OW 3085   3.119   1.042   1.242
 1015SOL    HW1 3086   3.115   0.974   1.171
 1015SOL    HW2 3087   3.098   1.123   1.190
 1016SOL     OW 3088   3.254   0.712   0.343
 1016SOL    HW1 3089   3.169   0.728   0.388
 1016SOL    HW2 3090   3.230   0.637   0.286
 1017SOL     OW 3091   3.638   1.754   1.163
 1017SOL    HW1 3092   3.704   1.775   1.095
 1017SOL    HW2 3093   3.618   1.661   1.141
 1018SOL     OW 3094   3.124   1.762   1.093
 1018SOL    HW1 3095   3.215   1.795   1.084
 1018SOL    HW2 3096   3.139   1.666   1.100
 1019SOL     OW 3097   1.983   1.143   1.068
 1019SOL    HW1 3098   1.938   1.201   1.131
 1019SOL    HW2 3099   1.909   1.101   1.020
 1020SOL     OW 3100   2.547   1.697   1.767
 1020SOL    HW1 3101   2.480   1.768   1.758
 1020SOL    HW2 3102   2.604   1.713   1.690
 1021SOL     OW 3103   3.574   0.198   0.568
 1021SOL    HW1 3104   3.585   0.147   0.485
 1021SOL    HW2 3105   3.490   0.164   0.602
 1022SOL     OW 3106   3.231   1.654   0.586
 1022SOL    HW1 3107   3.156   1.614   0.540
 1022SOL    HW2 3108   3.199   1.746   0.596
 1023SOL     OW 3109   1.987   1.779   1.831
 1023SOL    HW1 3110   1.948   1.708   1.887
 1023SOL    HW2 3111   2.035   1.832   1.898
 1024SOL     OW 3112   3.101   0.954   0.678
 1024SOL    HW1 3113   3.182   0.905   0.706
 1024SOL    HW2 3114   3.140   1.039   0.651
 1025SOL     OW 3115   2.644   1.290   1.436
 1025SOL    HW1 3116   2.616   1.344   1.514
 1025SOL    HW2 3117   2.567   1.302   1.377
 1026SOL     OW 3118   3.452   1.718   1.419
 1026SOL    HW1 3119   3.522   1.719   1.352
 1026SOL    HW2 3120   3.430   1.813   1.423
 1027SOL     OW 3121   3.684   0.212   1.011
 1027SOL    HW1 3122   3.705   0.145   0.943
 1027SOL    HW2 3123   3.602   0.250   0.973
 1028SOL     OW 3124   2.125   0.260   0.751
 1028SOL    HW1 3125   2.040   0.299   0.724
 1028SOL    HW2 3126   2.127   0.279   0.847
 1029SOL     OW 3127   2.680   1.029   1.387
 1029SOL    HW1 3128   2.685   1.035   1.290
 1029SOL    HW2 3129   2.671   1.123   1.412
 1030SOL     OW 3130   2.209   1.303   1.501
 1030SOL    HW1 3131   2.199   1.382   1.445
 1030SOL    HW2 3132   2.121   1.263   1.499
 1031SOL     OW 3133   3.445   1.306   1.258
 1031SOL    HW1 3134   3.497   1.279   1.335
 1031SOL    HW2 3135   3.384   1.371   1.299
 1032SOL     OW 3136   2.901   1.132   0.741
 1032SOL    HW1 3137   2.832   1.079   0.786
 1032SOL    HW2 3138   2.966   1.064   0.716
 1033SOL     OW 3139   2.902   0.271   0.987
 1033SOL    HW1 3140   2.878   0.208   0.916
 1033SOL    HW2 3141   2.910   0.209   1.062
 1034SOL     OW 3142   2.547   1.491   0.507
 1034SOL    HW1 3143   2.599   1.455   0.433
 1034SOL    HW2 3144   2.483   1.550   0.461
 1035SOL     OW 3145   2.074   1.329   0.353
 1035SOL    HW1 3146   2.002   1.349   0.291
 1035SOL    HW2 3147   2.050   1.385   0.429
 1036SOL     OW 3148   1.982   0.986   1.711
 1036SOL    HW1 3149   1.908   0.988   1.775
 1036SOL    HW2 3150   2.060   0.978   1.770
 1037SOL     OW 3151   2.500   0.229   1.501
 1037SOL    HW1 3152   2.586   0.206   1.460
 1037SOL    HW2 3153   2.530   0.263   1.588
 1038SOL     OW 3154   1.940   0.389   0.054
 1038SOL    HW1 3155   1.895   0.350  -0.023
 1038SOL    HW2 3156   2.029   0.406   0.018
 1039SOL     OW 3157   3.249   0.865   1.404
 1039SOL    HW1 3158   3.191   0.924   1.351
 1039SOL    HW2 3159   3.332   0.872   1.352
 1040SOL     OW 3160   1.913   0.223   0.270
 1040SOL    HW1 3161   1.927   0.288   0.199
 1040SOL    HW2 3162   1.924   0.139   0.223
 1041SOL     OW 3163   2.490   0.851   1.462
 1041SOL    HW1 3164   2.549   0.927   1.444
 1041SOL    HW2 3165   2.553   0.777   1.455
 1042SOL     OW 3166   3.384   1.851   1.072
 1042SOL    HW1 3167   3.415   1.904   0.997
 1042SOL    HW2 3168   3.467   1.816   1.109
 1043SOL     OW 3169   2.551   0.568   1.687
 1043SOL    HW1 3170   2.620   0.613   1.739
 1043SOL    HW2 3171   2.554   0.477   1.721
 1044SOL     OW 3172   3.316   1.179   1.618
 1044SOL    HW1 3173   3.319   1.208   1.712
 1044SOL    HW2 3174   3.404   1.205   1.585
 1045SOL     OW 3175   2.209   1.780   1.569
 1045SOL    HW1 3176   2.121   1.821   1.560
 1045SOL    HW2 3177   2.183   1.690   1.595
 1046SOL     OW 3178   3.467   0.883   1.243
 1046SOL    HW1 3179   3.478   0.802   1.190
 1046SOL    HW2 3180   3.460   0.953   1.175
 1047SOL     OW 3181   3.104   0.251   0.543
 1047SOL    HW1 3182   3.164   0.247   0.466
 1047SOL    HW2 3183   3.131   0.333   0.587
 1048SOL     OW 3184   2.477   0.660   0.650
 1048SOL    HW1 3185   2.498   0.750   0.681
 1048SOL    HW2 3186   2.401   0.678   0.592
 1049SOL     OW 3187   3.589   0.395   1.563
 1049SOL    HW1 3188   3.598   0.467   1.627
 1049SOL    HW2 3189   3.530   0.333   1.609
 1050SOL     OW 3190   3.553   0.949   1.492
 1050SOL    HW1 3191   3.551   1.045   1.490
 1050SOL    HW2 3192   3.536   0.925   1.399
 1051SOL     OW 3193   2.539   1.719   0.951
 1051SOL    HW1 3194   2.517   1.813   0.939
 1051SOL    HW2 3195   2.636   1.718   0.950
 1052SOL     OW 3196   2.731   0.982   0.899
 1052SOL    HW1 3197   2.784   0.903   0.922
 1052SOL    HW2 3198   2.701   1.013   0.985
 1053SOL     OW 3199   3.702   1.577   0.836
 1053SOL    HW1 3200   3.628   1.571   0.773
 1053SOL    HW2 3201   3.667   1.532   0.914
 1054SOL     OW 3202   2.114   1.345   1.851
 1054SOL    HW1 3203   2.025   1.308   1.858
 1054SOL    HW2 3204   2.137   1.355   1.945
 1055SOL     OW 3205   1.982   1.121   0.656
 1055SOL    HW1 3206   2.037   1.105   0.735
 1055SOL    HW2 3207   2.049   1.116   0.586
 1056SOL     OW 3208   2.552   1.441   1.637
 1056SOL    HW1 3209   2.481   1.389   1.679
 1056SOL    HW2 3210   2.551   1.523   1.690
 1057SOL     OW 3211   3.671   0.171   1.311
 1057SOL    HW1 3212   3.575   0.160   1.328
 1057SOL    HW2 3213   3.677   0.145   1.217
 1058SOL     OW 3214   2.255   0.438   0.572
 1058SOL    HW1 3215   2.327   0.398   0.522
 1058SOL    HW2 3216   2.228   0.368   0.633
 1059SOL     OW 3217   3.576   1.503   1.079
 1059SOL    HW1 3218   3.494   1.493   1.026
 1059SOL    HW2 3219   3.570   1.426   1.138
 1060SOL     OW 3220   2.235   0.568   1.283
 1060SOL    HW1 3221   2.297   0.496   1.297
 1060SOL    HW2 3222   2.221   0.564   1.186
 1061SOL     OW 3223   2.731   1.641   0.644
 1061SOL    HW1 3224   2.705   1.731   0.618
 1061SOL    HW2 3225   2.660   1.587   0.605
 1062SOL     OW 3226   3.309   0.305   1.139
 1062SOL    HW1 3227   3.358   0.243   1.195
 1062SOL    HW2 3228   3.237   0.331   1.200
 1063SOL     OW 3229   2.923   0.090   1.186
 1063SOL    HW1 3230   2.918  -0.006   1.168
 1063SOL    HW2 3231   2.973   0.093   1.268
 1064SOL     OW 3232   2.451   1.591   1.287
 1064SOL    HW1 3233   2.445   1.685   1.315
 1064SOL    HW2 3234   2.542   1.586   1.251
 1065SOL     OW 3235   3.160   0.485   0.687
 1065SOL    HW1 3236   3.103   0.564   0.683
 1065SOL    HW2 3237   3.148   0.457   0.780
 1066SOL     OW 3238   3.466   0.327   0.905
 1066SOL    HW1 3239   3.403   0.341   0.978
 1066SOL    HW2 3240   3.450   0.404   0.846
 1067SOL     OW 3241   1.870   1.078   0.285
 1067SOL    HW1 3242   1.965   1.090   0.280
 1067SOL    HW2 3243   1.864   0.981   0.304
 1068SOL     OW 3244   2.090   0.607   1.995
 1068SOL    HW1 3245   2.000   0.606   2.032
 1068SOL    HW2 3246   2.071   0.592   1.901
 1069SOL     OW 3247   2.069   0.322   2.889
 1069SOL    HW1 3248   2.112   0.260   2.950
 1069SOL    HW2 3249   1.980   0.283   2.880
 1070SOL     OW 3250   1.841   0.484   2.524
 1070SOL    HW1 3251   1.749   0.500   2.552
 1070SOL    HW2 3252   1.830   0.404   2.469
 1071SOL     OW 3253   2.432   1.311   3.045
 1071SOL    HW1 3254   2.354   1.335   2.992
 1071SOL    HW2 3255   2.449   1.392   3.095
 1072SOL     OW 3256   3.461   1.557   2.557
 1072SOL    HW1 3257   3.406   1.532   2.634
 1072SOL    HW2 3258   3.392   1.567   2.489
 1073SOL     OW 3259   3.009   0.699   2.537
 1073SOL    HW1 3260   3.058   0.783   2.526
 1073SOL    HW2 3261   2.956   0.718   2.617
 1074SOL     OW 3262   3.658   0.606   2.045
 1074SOL    HW1 3263   3.634   0.605   1.951
 1074SOL    HW2 3264   3.603   0.533   2.080
 1075SOL     OW 3265   2.587   1.114   2.947
 1075SOL    HW1 3266   2.521   1.173   2.990
 1075SOL    HW2 3267   2.624   1.177   2.883
 1076SOL     OW 3268   2.556   0.967   2.508
 1076SOL    HW1 3269   2.626   0.974   2.576
 1076SOL    HW2 3270   2.496   1.040   2.533
 1077SOL     OW 3271   2.211   1.413   2.914
 1077SOL    HW1 3272   2.136   1.367   2.872
 1077SOL    HW2 3273   2.243   1.472   2.843
 1078SOL     OW 3274   3.427   0.515   2.525
 1078SOL    HW1 3275   3.331   0.496   2.529
 1078SOL    HW2 3276   3.431   0.570   2.444
 1079SOL     OW 3277   2.097   1.743   2.314
 1079SOL    HW1 3278   2.121   1.813   2.378
 1079SOL    HW2 3279   2.170   1.749   2.251
 1080SOL     OW 3280   2.095   1.472   2.347
 1080SOL    HW1 3281   2.090   1.569   2.356
 1080SOL    HW2 3282   2.065   1.440   2.433
 1081SOL     OW 3283   2.182   1.113   2.726
 1081SOL    HW1 3284   2.189   1.021   2.757
 1081SOL    HW2 3285   2.123   1.153   2.794
 1082SOL     OW 3286   2.423   0.989   2.036
 1082SOL    HW1 3287   2.474   1.034   1.965
 1082SOL    HW2 3288   2.475   1.014   2.114
 1083SOL     OW 3289   1.993   0.696   2.429
 1083SOL    HW1 3290   1.943   0.620   2.463
 1083SOL    HW2 3291   1.991   0.757   2.505
 1084SOL     OW 3292   3.688   1.772   2.168
 1084SOL    HW1 3293   3.769   1.773   2.223
 1084SOL    HW2 3294   3.690   1.863   2.130
 1085SOL     OW 3295   1.911   1.573   1.980
 1085SOL    HW1 3296   1.892   1.479   1.995
 1085SOL    HW2 3297   1.886   1.614   2.065
 1086SOL     OW 3298   3.573   0.946   2.464
 1086SOL    HW1 3299   3.618   0.887   2.401
 1086SOL    HW2 3300   3.538   1.014   2.405
 1087SOL     OW 3301   3.510   1.137   2.276
 1087SOL    HW1 3302   3.596   1.117   2.235
 1087SOL    HW2 3303   3.531   1.222   2.322
 1088SOL     OW 3304   2.501   1.409   2.577
 1088SOL    HW1 3305   2.460   1.319   2.576
 1088SOL    HW2 3306   2.488   1.435   2.483
 1089SOL     OW 3307   0.964   3.402   0.100
 1089SOL    HW1 3308   1.026   3.337   0.139
 1089SOL    HW2 3309   0.928   3.444   0.180
 1090SOL     OW 3310   2.669   0.044   2.365
 1090SOL    HW1 3311   2.720   0.125   2.348
 1090SOL    HW2 3312   2.578   0.077   2.377
 1091SOL     OW 3313   3.391   1.026   2.058
 1091SOL    HW1 3314   3.341   0.953   2.097
 1091SOL    HW2 3315   3.428   1.070   2.137
 1092SOL     OW 3316   3.291   1.467   2.747
 1092SOL    HW1 3317   3.249   1.466   2.835
 1092SOL    HW2 3318   3.285   1.372   2.723
 1093SOL     OW 3319   3.478   1.855   2.396
 1093SOL    HW1 3320   3.471   1.790   2.323
 1093SOL    HW2 3321   3.497   1.799   2.472
 1094SOL     OW 3322   2.445   0.665   2.130
 1094SOL    HW1 3323   2.447   0.757   2.101
 1094SOL    HW2 3324   2.377   0.667   2.201
 1095SOL     OW 3325   3.161   0.334   2.799
 1095SOL    HW1 3326   3.067   0.306   2.792
 1095SOL    HW2 3327   3.178   0.317   2.893
 1096SOL     OW 3328   3.439   1.675   2.188
 1096SOL    HW1 3329   3.532   1.700   2.173
 1096SOL    HW2 3330   3.408   1.662   2.096
 1097SOL     OW 3331   2.913   0.681   2.279
 1097SOL    HW1 3332   2.935   0.677   2.375
 1097SOL    HW2 3333   2.827   0.634   2.276
 1098SOL     OW 3334   1.973   0.871   2.638
 1098SOL    HW1 3335   2.059   0.863   2.684
 1098SOL    HW2 3336   1.924   0.930   2.699
 1099SOL     OW 3337   2.759   0.329   2.050
 1099SOL    HW1 3338   2.806   0.390   1.990
 1099SOL    HW2 3339   2.751   0.251   1.993
 1100SOL     OW 3340   3.259   1.153   2.407
 1100SOL    HW1 3341   3.341   1.154   2.354
 1100SOL    HW2 3342   3.206   1.223   2.364
 1101SOL     OW 3343   2.383   0.248   2.763
 1101SOL    HW1 3344   2.308   0.225   2.707
 1101SOL    HW2 3345   2.388   0.345   2.751
 1102SOL     OW 3346   2.869   1.471   2.345
 1102SOL    HW1 3347   2.849   1.545   2.284
 1102SOL    HW2 3348   2.829   1.504   2.427
 1103SOL     OW 3349   2.201   1.819   2.735
 1103SOL    HW1 3350   2.249   1.734   2.736
 1103SOL    HW2 3351   2.273   1.885   2.747
 1104SOL     OW 3352   3.714   1.076   2.663
 1104SOL    HW1 3353   3.661   1.033   2.593
 1104SOL    HW2 3354   3.642   1.107   2.723
 1105SOL     OW 3355   2.169   0.959   2.154
 1105SOL    HW1 3356   2.253   0.974   2.108
 1105SOL    HW2 3357   2.155   0.864   2.141
 1106SOL     OW 3358   3.376   0.816   2.608
 1106SOL    HW1 3359   3.410   0.727   2.619
 1106SOL    HW2 3360   3.451   0.863   2.569
 1107SOL     OW 3361   3.045   1.759   2.110
 1107SOL    HW1 3362   2.955   1.741   2.142
 1107SOL    HW2 3363   3.059   1.686   2.047
 1108SOL     OW 3364   3.539   1.372   1.948
 1108SOL    HW1 3365   3.513   1.463   1.927
 1108SOL    HW2 3366   3.461   1.321   1.921
 1109SOL     OW 3367   2.320   1.791   2.156
 1109SOL    HW1 3368   2.368   1.834   2.229
 1109SOL    HW2 3369   2.393   1.745   2.110
 1110SOL     OW 3370   3.295   0.156   2.315
 1110SOL    HW1 3371   3.343   0.101   2.251
 1110SOL    HW2 3372   3.329   0.124   2.400
 1111SOL     OW 3373   2.843   1.706   2.748
 1111SOL    HW1 3374   2.927   1.660   2.728
 1111SOL    HW2 3375   2.783   1.659   2.687
 1112SOL     OW 3376   2.255   0.660   2.328
 1112SOL    HW1 3377   2.258   0.564   2.348
 1112SOL    HW2 3378   2.164   0.682   2.356
 1113SOL     OW 3379   2.483   0.087   1.921
 1113SOL    HW1 3380   2.529   0.027   1.982
 1113SOL    HW2 3381   2.472   0.032   1.842
 1114SOL     OW 3382   2.676   1.303   2.782
 1114SOL    HW1 3383   2.766   1.338   2.771
 1114SOL    HW2 3384   2.626   1.349   2.713
 1115SOL     OW 3385   2.787   0.513   2.753
 1115SOL    HW1 3386   2.766   0.499   2.658
 1115SOL    HW2 3387   2.825   0.426   2.776
 1116SOL     OW 3388   2.390   0.103   2.352
 1116SOL    HW1 3389   2.365   0.011   2.327
 1116SOL    HW2 3390   2.377   0.150   2.267
 1117SOL     OW 3391   3.312   1.226   1.888
 1117SOL    HW1 3392   3.337   1.149   1.943
 1117SOL    HW2 3393   3.231   1.257   1.932
 1118SOL     OW 3394   2.115   0.102   2.037
 1118SOL    HW1 3395   2.189   0.145   2.082
 1118SOL    HW2 3396   2.126   0.010   2.064
 1119SOL     OW 3397   2.826   0.263   2.307
 1119SOL    HW1 3398   2.803   0.286   2.215
 1119SOL    HW2 3399   2.922   0.281   2.309
 1120SOL     OW 3400   3.065   1.588   2.642
 1120SOL    HW1 3401   3.085   1.655   2.575
 1120SOL    HW2 3402   3.154   1.561   2.671
 1121SOL     OW 3403   2.374   1.170   2.548
 1121SOL    HW1 3404   2.310   1.150   2.619
 1121SOL    HW2 3405   2.317   1.166   2.469
 1122SOL     OW 3406   3.110   1.799   2.467
 1122SOL    HW1 3407   3.152   1.868   2.413
 1122SOL    HW2 3408   3.037   1.850   2.507
 1123SOL     OW 3409   2.896   0.493   1.879
 1123SOL    HW1 3410   2.853   0.575   1.851
 1123SOL    HW2 3411   2.953   0.521   1.952
 1124SOL     OW 3412   4.103   2.697   0.180
 1124SOL    HW1 3413   4.196   2.724   0.167
 1124SOL    HW2 3414   4.100   2.681   0.276
 1125SOL     OW 3415   2.747   0.461   2.489
 1125SOL    HW1 3416   2.698   0.505   2.418
 1125SOL    HW2 3417   2.776   0.380   2.444
 1126SOL     OW 3418   2.769   0.070   2.644
 1126SOL    HW1 3419   2.745   0.055   2.552
 1126SOL    HW2 3420   2.696   0.028   2.692
 1127SOL     OW 3421   3.254   1.207   2.678
 1127SOL    HW1 3422   3.164   1.172   2.690
 1127SOL    HW2 3423   3.268   1.190   2.582
 1128SOL     OW 3424   3.673   0.786   2.249
 1128SOL    HW1 3425   3.742   0.742   2.304
 1128SOL    HW2 3426   3.676   0.732   2.168
 1129SOL     OW 3427   2.386   1.457   2.064
 1129SOL    HW1 3428   2.301   1.413   2.078
 1129SOL    HW2 3429   2.432   1.398   2.003
 1130SOL     OW 3430   3.578   1.349   2.418
 1130SOL    HW1 3431   3.667   1.343   2.458
 1130SOL    HW2 3432   3.539   1.426   2.462
 1131SOL     OW 3433   3.241   0.538   1.917
 1131SOL    HW1 3434   3.175   0.534   1.989
 1131SOL    HW2 3435   3.295   0.459   1.938
 1132SOL     OW 3436   2.347   0.218   2.114
 1132SOL    HW1 3437   2.403   0.178   2.045
 1132SOL    HW2 3438   2.340   0.311   2.083
 1133SOL     OW 3439   3.500   1.161   2.804
 1133SOL    HW1 3440   3.481   1.183   2.897
 1133SOL    HW2 3441   3.413   1.172   2.762
 1134SOL     OW 3442   2.592   1.054   2.247
 1134SOL    HW1 3443   2.574   1.022   2.338
 1134SOL    HW2 3444   2.675   1.005   2.226
 1135SOL     OW 3445   0.183   2.995   0.093
 1135SOL    HW1 3446   0.237   2.945   0.156
 1135SOL    HW2 3447   0.101   2.943   0.094
 1136SOL     OW 3448   4.085   3.698   0.125
 1136SOL    HW1 3449   4.081   3.762   0.196
 1136SOL    HW2 3450   4.180   3.677   0.122
 1137SOL     OW 3451   2.195   1.160   2.339
 1137SOL    HW1 3452   2.191   1.226   2.269
 1137SOL    HW2 3453   2.185   1.077   2.289
 1138SOL     OW 3454   2.374   0.524   2.732
 1138SOL    HW1 3455   2.394   0.584   2.657
 1138SOL    HW2 3456   2.446   0.546   2.794
 1139SOL     OW 3457   3.117   1.363   2.299
 1139SOL    HW1 3458   3.172   1.440   2.325
 1139SOL    HW2 3459   3.027   1.395   2.322
 1140SOL     OW 3460   3.122   1.419   2.962
 1140SOL    HW1 3461   3.119   1.345   3.026
 1140SOL    HW2 3462   3.051   1.395   2.899
 1141SOL     OW 3463   3.429   0.657   2.295
 1141SOL    HW1 3464   3.359   0.709   2.252
 1141SOL    HW2 3465   3.508   0.712   2.278
 1142SOL     OW 3466   4.352   3.634   0.112
 1142SOL    HW1 3467   4.352   3.613   0.017
 1142SOL    HW2 3468   4.446   3.654   0.127
 1143SOL     OW 3469   2.463   0.868   2.912
 1143SOL    HW1 3470   2.504   0.956   2.920
 1143SOL    HW2 3471   2.422   0.858   3.000
 1144SOL     OW 3472   3.123   0.767   2.944
 1144SOL    HW1 3473   3.093   0.839   3.004
 1144SOL    HW2 3474   3.182   0.814   2.885
 1145SOL     OW 3475   3.051   0.525   2.109
 1145SOL    HW1 3476   3.069   0.453   2.172
 1145SOL    HW2 3477   3.005   0.589   2.166
 1146SOL     OW 3478   3.988   3.471   0.030
 1146SOL    HW1 3479   4.056   3.415   0.073
 1146SOL    HW2 3480   4.013   3.559   0.066
 1147SOL     OW 3481   2.565   0.598   2.905
 1147SOL    HW1 3482   2.648   0.581   2.857
 1147SOL    HW2 3483   2.555   0.695   2.899
 1148SOL     OW 3484   2.193   0.035   2.533
 1148SOL    HW1 3485   2.266   0.067   2.477
 1148SOL    HW2 3486   2.241  -0.026   2.593
 1149SOL     OW 3487   3.505   0.415   2.167
 1149SOL    HW1 3488   3.552   0.351   2.225
 1149SOL    HW2 3489   3.467   0.478   2.230
 1150SOL     OW 3490   2.892   0.758   2.782
 1150SOL    HW1 3491   2.965   0.750   2.847
 1150SOL    HW2 3492   2.854   0.668   2.782
 1151SOL     OW 3493   3.376   0.303   1.959
 1151SOL    HW1 3494   3.342   0.219   1.993
 1151SOL    HW2 3495   3.429   0.335   2.035
 1152SOL     OW 3496   3.163   0.803   1.902
 1152SOL    HW1 3497   3.198   0.712   1.891
 1152SOL    HW2 3498   3.192   0.846   1.819
 1153SOL     OW 3499   2.944   1.366   2.758
 1153SOL    HW1 3500   2.963   1.283   2.711
 1153SOL    HW2 3501   2.980   1.434   2.698
 1154SOL     OW 3502   2.204   0.846   2.796
 1154SOL    HW1 3503   2.298   0.851   2.818
 1154SOL    HW2 3504   2.180   0.758   2.829
 1155SOL     OW 3505   2.155   0.576   2.878
 1155SOL    HW1 3506   2.120   0.485   2.886
 1155SOL    HW2 3507   2.232   0.561   2.820
 1156SOL     OW 3508   1.883   1.295   2.021
 1156SOL    HW1 3509   1.790   1.317   1.998
 1156SOL    HW2 3510   1.874   1.206   2.061
 1157SOL     OW 3511   6.270   1.805   2.814
 1157SOL    HW1 3512   6.233   1.738   2.752
 1157SOL    HW2 3513   6.364   1.808   2.785
 1158SOL     OW 3514   2.349   1.581   2.735
 1158SOL    HW1 3515   2.422   1.646   2.745
 1158SOL    HW2 3516   2.392   1.514   2.679
 1159SOL     OW 3517   6.217   0.616   2.979
 1159SOL    HW1 3518   6.303   0.620   2.935
 1159SOL    HW2 3519   6.241   0.592   3.070
 1160SOL     OW 3520   2.678   0.546   2.227
 1160SOL    HW1 3521   2.687   0.471   2.167
 1160SOL    HW2 3522   2.596   0.589   2.195
 1161SOL     OW 3523   2.313   0.459   1.992
 1161SOL    HW1 3524   2.377   0.522   2.028
 1161SOL    HW2 3525   2.230   0.511   2.002
 1162SOL     OW 3526   3.239   0.818   2.166
 1162SOL    HW1 3527   3.157   0.817   2.217
 1162SOL    HW2 3528   3.207   0.809   2.075
 1163SOL     OW 3529   3.558   1.676   2.958
 1163SOL    HW1 3530   3.639   1.728   2.943
 1163SOL    HW2 3531   3.581   1.594   2.913
 1164SOL     OW 3532   6.318   1.239   2.865
 1164SOL    HW1 3533   6.278   1.259   2.951
 1164SOL    HW2 3534   6.251   1.180   2.825
 1165SOL     OW 3535   3.670   0.239   2.301
 1165SOL    HW1 3536   3.710   0.221   2.214
 1165SOL    HW2 3537   3.689   0.155   2.348
 1166SOL     OW 3538   3.261   1.585   2.372
 1166SOL    HW1 3539   3.316   1.617   2.297
 1166SOL    HW2 3540   3.203   1.662   2.389
 1167SOL     OW 3541   3.148   0.932   2.524
 1167SOL    HW1 3542   3.229   0.890   2.559
 1167SOL    HW2 3543   3.185   1.005   2.470
 1168SOL     OW 3544   2.549   1.676   2.038
 1168SOL    HW1 3545   2.560   1.678   1.940
 1168SOL    HW2 3546   2.499   1.593   2.049
 1169SOL     OW 3547   3.641   0.227   2.867
 1169SOL    HW1 3548   3.676   0.156   2.811
 1169SOL    HW2 3549   3.565   0.258   2.813
 1170SOL     OW 3550   2.081   0.375   2.615
 1170SOL    HW1 3551   2.005   0.433   2.598
 1170SOL    HW2 3552   2.085   0.372   2.712
 1171SOL     OW 3553   3.093   1.557   1.931
 1171SOL    HW1 3554   3.096   1.463   1.959
 1171SOL    HW2 3555   3.008   1.561   1.884
 1172SOL     OW 3556   2.814   0.921   2.188
 1172SOL    HW1 3557   2.846   0.916   2.096
 1172SOL    HW2 3558   2.851   0.839   2.227
 1173SOL     OW 3559   3.352   1.657   1.928
 1173SOL    HW1 3560   3.262   1.621   1.917
 1173SOL    HW2 3561   3.390   1.647   1.839
 1174SOL     OW 3562   2.989   1.115   2.658
 1174SOL    HW1 3563   2.900   1.077   2.675
 1174SOL    HW2 3564   3.030   1.043   2.606
 1175SOL     OW 3565   2.896   0.261   2.799
 1175SOL    HW1 3566   2.855   0.195   2.740
 1175SOL    HW2 3567   2.875   0.226   2.887
 1176SOL     OW 3568   2.493   1.477   2.320
 1176SOL    HW1 3569   2.561   1.425   2.274
 1176SOL    HW2 3570   2.430   1.491   2.248
 1177SOL     OW 3571   2.137   1.343   2.124
 1177SOL    HW1 3572   2.044   1.322   2.102
 1177SOL    HW2 3573   2.125   1.399   2.204
 1178SOL     OW 3574   1.836   0.365   1.817
 1178SOL    HW1 3575   1.831   0.390   1.909
 1178SOL    HW2 3576   1.910   0.421   1.785
 1179SOL     OW 3577   1.860   0.089   2.161
 1179SOL    HW1 3578   1.933   0.113   2.102
 1179SOL    HW2 3579   1.907   0.034   2.227
 1180SOL     OW 3580   3.091   1.301   2.034
 1180SOL    HW1 3581   3.007   1.254   2.035
 1180SOL    HW2 3582   3.106   1.320   2.129
 1181SOL     OW 3583   3.352   1.845   2.890
 1181SOL    HW1 3584   3.400   1.900   2.825
 1181SOL    HW2 3585   3.418   1.778   2.914
 1182SOL     OW 3586   3.095   0.340   2.308
 1182SOL    HW1 3587   3.165   0.271   2.305
 1182SOL    HW2 3588   3.117   0.383   2.393
 1183SOL     OW 3589   2.430   0.713   2.543
 1183SOL    HW1 3590   2.476   0.797   2.528
 1183SOL    HW2 3591   2.374   0.706   2.464
 1184SOL     OW 3592   1.502   3.131   0.384
 1184SOL    HW1 3593   1.580   3.182   0.359
 1184SOL    HW2 3594   1.468   3.102   0.298
 1185SOL     OW 3595   2.642   1.378   1.938
 1185SOL    HW1 3596   2.667   1.368   2.032
 1185SOL    HW2 3597   2.709   1.441   1.905
 1186SOL     OW 3598   2.536   1.776   2.740
 1186SOL    HW1 3599   2.496   1.864   2.728
 1186SOL    HW2 3600   2.619   1.796   2.782
 1187SOL     OW 3601   2.750   0.982   2.714
 1187SOL    HW1 3602   2.795   0.898   2.740
 1187SOL    HW2 3603   2.702   1.005   2.795
 1188SOL     OW 3604   2.911   0.901   1.938
 1188SOL    HW1 3605   2.901   0.979   1.881
 1188SOL    HW2 3606   3.003   0.874   1.922
 1189SOL     OW 3607   3.701   1.557   2.698
 1189SOL    HW1 3608   3.618   1.562   2.647
 1189SOL    HW2 3609   3.740   1.474   2.667
 1190SOL     OW 3610   2.030   1.268   2.535
 1190SOL    HW1 3611   2.067   1.223   2.613
 1190SOL    HW2 3612   2.082   1.227   2.463
 1191SOL     OW 3613   2.254   0.401   2.401
 1191SOL    HW1 3614   2.304   0.318   2.399
 1191SOL    HW2 3615   2.197   0.389   2.479
 1192SOL     OW 3616   4.351   2.766   0.085
 1192SOL    HW1 3617   4.429   2.709   0.101
 1192SOL    HW2 3618   4.344   2.763  -0.012
 1193SOL     OW 3619   2.708   1.591   2.541
 1193SOL    HW1 3620   2.668   1.665   2.493
 1193SOL    HW2 3621   2.632   1.533   2.556
 1194SOL     OW 3622   2.748   4.256   2.952
 1194SOL    HW1 3623   2.661   4.286   2.918
 1194SOL    HW2 3624   2.791   4.341   2.971
 1195SOL     OW 3625   2.680   1.317   2.200
 1195SOL    HW1 3626   2.655   1.225   2.223
 1195SOL    HW2 3627   2.754   1.336   2.260
 1196SOL     OW 3628   3.195   0.042   1.956
 1196SOL    HW1 3629   3.268   0.015   2.016
 1196SOL    HW2 3630   3.121   0.047   2.017
 1197SOL     OW 3631   3.160   0.467   2.547
 1197SOL    HW1 3632   3.101   0.544   2.549
 1197SOL    HW2 3633   3.146   0.427   2.634
 1198SOL     OW 3634   3.427   0.307   2.711
 1198SOL    HW1 3635   3.336   0.315   2.745
 1198SOL    HW2 3636   3.434   0.386   2.655
 1199SOL     OW 3637   1.903   1.055   2.159
 1199SOL    HW1 3638   1.999   1.039   2.151
 1199SOL    HW2 3639   1.871   0.964   2.176
 1200SOL     OW 3640   2.784   1.690   2.200
 1200SOL    HW1 3641   2.706   1.684   2.142
 1200SOL    HW2 3642   2.756   1.757   2.264
 1201SOL     OW 3643   1.977   2.495   0.112
 1201SOL    HW1 3644   1.889   2.503   0.154
 1201SOL    HW2 3645   1.958   2.435   0.037
 1202SOL     OW 3646   2.081   2.161   0.993
 1202SOL    HW1 3647   2.111   2.122   1.078
 1202SOL    HW2 3648   1.995   2.116   0.983
 1203SOL     OW 3649   1.833   2.273   0.661
 1203SOL    HW1 3650   1.745   2.290   0.699
 1203SOL    HW2 3651   1.811   2.205   0.593
 1204SOL     OW 3652   2.427   3.182   1.232
 1204SOL    HW1 3653   2.346   3.189   1.178
 1204SOL    HW2 3654   2.453   3.275   1.240
 1205SOL     OW 3655   3.486   3.372   0.761
 1205SOL    HW1 3656   3.441   3.348   0.845
 1205SOL    HW2 3657   3.411   3.408   0.709
 1206SOL     OW 3658   3.004   2.554   0.705
 1206SOL    HW1 3659   3.045   2.641   0.689
 1206SOL    HW2 3660   2.963   2.569   0.792
 1207SOL     OW 3661   3.659   2.415   0.302
 1207SOL    HW1 3662   3.648   2.472   0.225
 1207SOL    HW2 3663   3.598   2.457   0.367
 1208SOL     OW 3664   2.579   2.994   1.093
 1208SOL    HW1 3665   2.522   3.042   1.155
 1208SOL    HW2 3666   2.615   3.070   1.043
 1209SOL     OW 3667   2.769   2.561   1.799
 1209SOL    HW1 3668   2.808   2.616   1.870
 1209SOL    HW2 3669   2.767   2.626   1.727
 1210SOL     OW 3670   2.557   2.827   0.654
 1210SOL    HW1 3671   2.626   2.833   0.723
 1210SOL    HW2 3672   2.496   2.898   0.681
 1211SOL     OW 3673   2.537   3.023   1.912
 1211SOL    HW1 3674   2.552   3.082   1.987
 1211SOL    HW2 3675   2.473   3.072   1.858
 1212SOL     OW 3676   2.204   3.244   1.087
 1212SOL    HW1 3677   2.136   3.186   1.049
 1212SOL    HW2 3678   2.235   3.297   1.010
 1213SOL     OW 3679   2.338   2.220   1.419
 1213SOL    HW1 3680   2.415   2.165   1.441
 1213SOL    HW2 3681   2.264   2.171   1.460
 1214SOL     OW 3682   3.437   2.287   0.728
 1214SOL    HW1 3683   3.355   2.286   0.676
 1214SOL    HW2 3684   3.418   2.356   0.793
 1215SOL     OW 3685   2.028   3.620   0.480
 1215SOL    HW1 3686   2.093   3.671   0.531
 1215SOL    HW2 3687   2.028   3.534   0.527
 1216SOL     OW 3688   2.003   3.377   0.606
 1216SOL    HW1 3689   1.944   3.398   0.681
 1216SOL    HW2 3690   2.024   3.283   0.625
 1217SOL     OW 3691   2.162   2.949   0.846
 1217SOL    HW1 3692   2.176   2.858   0.880
 1217SOL    HW2 3693   2.110   2.989   0.918
 1218SOL     OW 3694   2.388   3.673   1.421
 1218SOL    HW1 3695   2.316   3.651   1.482
 1218SOL    HW2 3696   2.428   3.751   1.462
 1219SOL     OW 3697   3.425   1.988   1.410
 1219SOL    HW1 3698   3.498   2.020   1.354
 1219SOL    HW2 3699   3.392   2.068   1.452
 1220SOL     OW 3700   1.956   2.518   0.594
 1220SOL    HW1 3701   1.918   2.431   0.619
 1220SOL    HW2 3702   1.964   2.563   0.680
 1221SOL     OW 3703   3.778   3.683   0.401
 1221SOL    HW1 3704   3.857   3.631   0.425
 1221SOL    HW2 3705   3.811   3.735   0.326
 1222SOL     OW 3706   1.916   3.402   0.071
 1222SOL    HW1 3707   1.923   3.308   0.093
 1222SOL    HW2 3708   1.886   3.439   0.156
 1223SOL     OW 3709   3.543   2.756   0.598
 1223SOL    HW1 3710   3.627   2.769   0.644
 1223SOL    HW2 3711   3.531   2.840   0.550
 1224SOL     OW 3712   3.480   2.995   0.460
 1224SOL    HW1 3713   3.514   3.024   0.374
 1224SOL    HW2 3714   3.531   3.049   0.523
 1225SOL     OW 3715   1.956   2.640   1.519
 1225SOL    HW1 3716   2.006   2.699   1.460
 1225SOL    HW2 3717   1.871   2.687   1.524
 1226SOL     OW 3718   2.486   3.264   0.750
 1226SOL    HW1 3719   2.451   3.176   0.726
 1226SOL    HW2 3720   2.492   3.308   0.663
 1227SOL     OW 3721   2.681   1.900   0.587
 1227SOL    HW1 3722   2.719   1.976   0.539
 1227SOL    HW2 3723   2.586   1.909   0.567
 1228SOL     OW 3724   2.072   2.809   1.334
 1228SOL    HW1 3725   2.161   2.773   1.316
 1228SOL    HW2 3726   2.035   2.813   1.245
 1229SOL     OW 3727   2.228   2.124   1.864
 1229SOL    HW1 3728   2.260   2.202   1.913
 1229SOL    HW2 3729   2.154   2.161   1.813
 1230SOL     OW 3730   3.360   3.286   0.992
 1230SOL    HW1 3731   3.304   3.311   1.067
 1230SOL    HW2 3732   3.315   3.207   0.957
 1231SOL     OW 3733   3.529   3.593   0.466
 1231SOL    HW1 3734   3.621   3.616   0.438
 1231SOL    HW2 3735   3.545   3.513   0.517
 1232SOL     OW 3736   3.131   2.251   0.925
 1232SOL    HW1 3737   3.041   2.216   0.939
 1232SOL    HW2 3738   3.181   2.196   0.989
 1233SOL     OW 3739   2.654   2.455   1.414
 1233SOL    HW1 3740   2.626   2.423   1.502
 1233SOL    HW2 3741   2.627   2.381   1.356
 1234SOL     OW 3742   3.234   2.349   1.660
 1234SOL    HW1 3743   3.234   2.384   1.751
 1234SOL    HW2 3744   3.294   2.272   1.669
 1235SOL     OW 3745   2.793   2.762   1.608
 1235SOL    HW1 3746   2.853   2.707   1.554
 1235SOL    HW2 3747   2.747   2.812   1.538
 1236SOL     OW 3748   2.863   2.250   1.210
 1236SOL    HW1 3749   2.767   2.257   1.226
 1236SOL    HW2 3750   2.866   2.213   1.121
 1237SOL     OW 3751   2.870   2.515   0.473
 1237SOL    HW1 3752   2.929   2.526   0.550
 1237SOL    HW2 3753   2.784   2.514   0.517
 1238SOL     OW 3754   1.969   2.677   0.813
 1238SOL    HW1 3755   2.056   2.678   0.855
 1238SOL    HW2 3756   1.920   2.741   0.867
 1239SOL     OW 3757   1.940   3.735   1.566
 1239SOL    HW1 3758   1.933   3.720   1.663
 1239SOL    HW2 3759   1.855   3.699   1.535
 1240SOL     OW 3760   2.738   2.153   0.106
 1240SOL    HW1 3761   2.791   2.202   0.171
 1240SOL    HW2 3762   2.802   2.088   0.071
 1241SOL     OW 3763   3.252   3.019   0.608
 1241SOL    HW1 3764   3.331   3.015   0.551
 1241SOL    HW2 3765   3.208   3.101   0.576
 1242SOL     OW 3766   2.421   1.969   0.922
 1242SOL    HW1 3767   2.421   2.000   1.015
 1242SOL    HW2 3768   2.425   2.052   0.874
 1243SOL     OW 3769   2.875   3.339   0.471
 1243SOL    HW1 3770   2.804   3.275   0.452
 1243SOL    HW2 3771   2.827   3.408   0.520
 1244SOL     OW 3772   2.189   3.653   0.908
 1244SOL    HW1 3773   2.233   3.566   0.897
 1244SOL    HW2 3774   2.265   3.713   0.923
 1245SOL     OW 3775   3.633   2.966   0.892
 1245SOL    HW1 3776   3.602   3.018   0.817
 1245SOL    HW2 3777   3.549   2.933   0.931
 1246SOL     OW 3778   3.329   2.618   0.697
 1246SOL    HW1 3779   3.339   2.570   0.781
 1246SOL    HW2 3780   3.412   2.667   0.687
 1247SOL     OW 3781   2.342   3.177   1.768
 1247SOL    HW1 3782   2.319   3.183   1.673
 1247SOL    HW2 3783   2.254   3.152   1.803
 1248SOL     OW 3784   2.107   2.095   1.506
 1248SOL    HW1 3785   2.081   2.156   1.578
 1248SOL    HW2 3786   2.050   2.018   1.527
 1249SOL     OW 3787   2.121   3.652   1.190
 1249SOL    HW1 3788   2.158   3.573   1.233
 1249SOL    HW2 3789   2.145   3.638   1.097
 1250SOL     OW 3790   2.760   3.545   0.853
 1250SOL    HW1 3791   2.848   3.504   0.861
 1250SOL    HW2 3792   2.739   3.526   0.759
 1251SOL     OW 3793   2.228   2.577   0.471
 1251SOL    HW1 3794   2.224   2.481   0.487
 1251SOL    HW2 3795   2.139   2.603   0.497
 1252SOL     OW 3796   3.366   2.114   1.711
 1252SOL    HW1 3797   3.366   2.129   1.808
 1252SOL    HW2 3798   3.318   2.030   1.705
 1253SOL     OW 3799   2.627   2.132   1.733
 1253SOL    HW1 3800   2.710   2.079   1.737
 1253SOL    HW2 3801   2.580   2.097   1.810
 1254SOL     OW 3802   2.725   3.447   1.162
 1254SOL    HW1 3803   2.695   3.397   1.085
 1254SOL    HW2 3804   2.752   3.375   1.222
 1255SOL     OW 3805   3.153   2.453   1.424
 1255SOL    HW1 3806   3.191   2.427   1.510
 1255SOL    HW2 3807   3.225   2.505   1.383
 1256SOL     OW 3808   2.652   3.235   0.971
 1256SOL    HW1 3809   2.741   3.236   0.933
 1256SOL    HW2 3810   2.596   3.252   0.893
 1257SOL     OW 3811   2.771   2.373   0.899
 1257SOL    HW1 3812   2.741   2.358   0.806
 1257SOL    HW2 3813   2.805   2.285   0.922
 1258SOL     OW 3814   2.422   1.931   0.518
 1258SOL    HW1 3815   2.335   1.927   0.562
 1258SOL    HW2 3816   2.420   2.020   0.478
 1259SOL     OW 3817   2.807   2.120   0.488
 1259SOL    HW1 3818   2.809   2.176   0.409
 1259SOL    HW2 3819   2.902   2.107   0.502
 1260SOL     OW 3820   2.915   2.583   1.442
 1260SOL    HW1 3821   2.853   2.508   1.445
 1260SOL    HW2 3822   3.002   2.537   1.438
 1261SOL     OW 3823   3.026   3.475   0.837
 1261SOL    HW1 3824   3.061   3.538   0.771
 1261SOL    HW2 3825   3.062   3.511   0.920
 1262SOL     OW 3826   2.369   3.023   0.690
 1262SOL    HW1 3827   2.299   2.998   0.754
 1262SOL    HW2 3828   2.319   3.025   0.606
 1263SOL     OW 3829   3.104   3.677   0.659
 1263SOL    HW1 3830   3.133   3.734   0.586
 1263SOL    HW2 3831   3.028   3.727   0.694
 1264SOL     OW 3832   1.965   2.404   1.379
 1264SOL    HW1 3833   2.061   2.406   1.362
 1264SOL    HW2 3834   1.954   2.481   1.438
 1265SOL     OW 3835   2.412   2.046   1.179
 1265SOL    HW1 3836   2.431   1.973   1.241
 1265SOL    HW2 3837   2.319   2.064   1.201
 1266SOL     OW 3838   2.694   2.319   0.646
 1266SOL    HW1 3839   2.622   2.349   0.590
 1266SOL    HW2 3840   2.729   2.243   0.597
 1267SOL     OW 3841   2.884   1.934   0.767
 1267SOL    HW1 3842   2.811   1.926   0.703
 1267SOL    HW2 3843   2.871   1.853   0.820
 1268SOL     OW 3844   3.237   3.064   0.879
 1268SOL    HW1 3845   3.142   3.041   0.881
 1268SOL    HW2 3846   3.255   3.055   0.783
 1269SOL     OW 3847   3.316   2.456   0.920
 1269SOL    HW1 3848   3.248   2.387   0.932
 1269SOL    HW2 3849   3.380   2.435   0.993
 1270SOL     OW 3850   3.746   2.712   0.351
 1270SOL    HW1 3851   3.771   2.653   0.425
 1270SOL    HW2 3852   3.790   2.669   0.275
 1271SOL     OW 3853   3.583   3.130   0.677
 1271SOL    HW1 3854   3.678   3.146   0.668
 1271SOL    HW2 3855   3.548   3.219   0.701
 1272SOL     OW 3856   2.422   2.171   0.397
 1272SOL    HW1 3857   2.436   2.141   0.305
 1272SOL    HW2 3858   2.483   2.247   0.401
 1273SOL     OW 3859   2.785   3.237   1.322
 1273SOL    HW1 3860   2.703   3.205   1.364
 1273SOL    HW2 3861   2.851   3.182   1.369
 1274SOL     OW 3862   2.995   3.216   1.144
 1274SOL    HW1 3863   2.913   3.219   1.196
 1274SOL    HW2 3864   2.961   3.217   1.053
 1275SOL     OW 3865   3.398   2.874   0.993
 1275SOL    HW1 3866   3.332   2.807   1.017
 1275SOL    HW2 3867   3.341   2.945   0.959
 1276SOL     OW 3868   2.781   1.923   1.379
 1276SOL    HW1 3869   2.805   1.911   1.285
 1276SOL    HW2 3870   2.865   1.957   1.415
 1277SOL     OW 3871   2.802   2.946   1.820
 1277SOL    HW1 3872   2.710   2.970   1.841
 1277SOL    HW2 3873   2.793   2.894   1.738
 1278SOL     OW 3874   2.494   2.933   0.400
 1278SOL    HW1 3875   2.522   2.887   0.482
 1278SOL    HW2 3876   2.525   2.874   0.331
 1279SOL     OW 3877   2.306   2.685   1.284
 1279SOL    HW1 3878   2.371   2.686   1.357
 1279SOL    HW2 3879   2.275   2.592   1.288
 1280SOL     OW 3880   3.110   2.211   1.307
 1280SOL    HW1 3881   3.130   2.298   1.347
 1280SOL    HW2 3882   3.020   2.227   1.273
 1281SOL     OW 3883   1.933   3.409   1.354
 1281SOL    HW1 3884   1.898   3.484   1.304
 1281SOL    HW2 3885   2.029   3.421   1.345
 1282SOL     OW 3886   2.226   3.028   0.450
 1282SOL    HW1 3887   2.208   3.112   0.404
 1282SOL    HW2 3888   2.310   2.999   0.409
 1283SOL     OW 3889   2.363   2.400   0.837
 1283SOL    HW1 3890   2.395   2.452   0.760
 1283SOL    HW2 3891   2.434   2.415   0.902
 1284SOL     OW 3892   3.135   3.251   0.541
 1284SOL    HW1 3893   3.182   3.334   0.559
 1284SOL    HW2 3894   3.045   3.280   0.518
 1285SOL     OW 3895   3.210   3.356   1.212
 1285SOL    HW1 3896   3.208   3.370   1.309
 1285SOL    HW2 3897   3.131   3.299   1.197
 1286SOL     OW 3898   3.463   2.526   0.467
 1286SOL    HW1 3899   3.393   2.527   0.533
 1286SOL    HW2 3900   3.508   2.609   0.490
 1287SOL     OW 3901   2.199   3.403   1.302
 1287SOL    HW1 3902   2.195   3.342   1.225
 1287SOL    HW2 3903   2.294   3.424   1.304
 1288SOL     OW 3904   2.347   2.562   1.672
 1288SOL    HW1 3905   2.390   2.611   1.600
 1288SOL    HW2 3906   2.412   2.491   1.686
 1289SOL     OW 3907   2.843   1.975   1.752
 1289SOL    HW1 3908   2.914   2.041   1.739
 1289SOL    HW2 3909   2.888   1.894   1.722
 1290SOL     OW 3910   2.361   1.904   1.767
 1290SOL    HW1 3911   2.306   1.864   1.698
 1290SOL    HW2 3912   2.310   1.984   1.790
 1291SOL     OW 3913   2.459   2.737   1.063
 1291SOL    HW1 3914   2.499   2.825   1.072
 1291SOL    HW2 3915   2.410   2.728   1.146
 1292SOL     OW 3916   3.206   2.680   1.041
 1292SOL    HW1 3917   3.111   2.678   1.021
 1292SOL    HW2 3918   3.239   2.602   0.993
 1293SOL     OW 3919   2.141   2.045   1.234
 1293SOL    HW1 3920   2.124   2.073   1.326
 1293SOL    HW2 3921   2.110   1.953   1.236
 1294SOL     OW 3922   1.927   3.146   1.275
 1294SOL    HW1 3923   1.962   3.105   1.356
 1294SOL    HW2 3924   1.924   3.240   1.300
 1295SOL     OW 3925   2.542   2.466   1.030
 1295SOL    HW1 3926   2.629   2.455   0.988
 1295SOL    HW2 3927   2.533   2.563   1.037
 1296SOL     OW 3928   2.175   1.919   0.629
 1296SOL    HW1 3929   2.137   2.006   0.652
 1296SOL    HW2 3930   2.181   1.874   0.715
 1297SOL     OW 3931   2.884   2.611   0.956
 1297SOL    HW1 3932   2.857   2.622   1.050
 1297SOL    HW2 3933   2.847   2.522   0.938
 1298SOL     OW 3934   3.743   3.501   1.592
 1298SOL    HW1 3935   3.760   3.465   1.504
 1298SOL    HW2 3936   3.811   3.456   1.645
 1299SOL     OW 3937   2.231   2.763   1.822
 1299SOL    HW1 3938   2.292   2.775   1.896
 1299SOL    HW2 3939   2.274   2.693   1.771
 1300SOL     OW 3940   2.906   3.232   0.884
 1300SOL    HW1 3941   2.941   3.153   0.840
 1300SOL    HW2 3942   2.960   3.305   0.848
 1301SOL     OW 3943   2.204   2.692   0.954
 1301SOL    HW1 3944   2.297   2.706   0.978
 1301SOL    HW2 3945   2.189   2.601   0.985
 1302SOL     OW 3946   2.162   2.415   1.012
 1302SOL    HW1 3947   2.125   2.325   1.005
 1302SOL    HW2 3948   2.232   2.411   0.943
 1303SOL     OW 3949   3.009   2.189   1.687
 1303SOL    HW1 3950   2.957   2.236   1.756
 1303SOL    HW2 3951   3.082   2.251   1.672
 1304SOL     OW 3952   3.019   2.016   1.476
 1304SOL    HW1 3953   3.013   2.077   1.551
 1304SOL    HW2 3954   3.063   2.072   1.409
 1305SOL     OW 3955   1.916   3.150   0.204
 1305SOL    HW1 3956   1.820   3.168   0.191
 1305SOL    HW2 3957   1.914   3.069   0.259
 1306SOL     OW 3958   1.912   3.641   0.938
 1306SOL    HW1 3959   1.886   3.564   0.884
 1306SOL    HW2 3960   2.008   3.646   0.921
 1307SOL     OW 3961   2.323   3.413   0.908
 1307SOL    HW1 3962   2.396   3.468   0.943
 1307SOL    HW2 3963   2.372   3.357   0.845
 1308SOL     OW 3964   2.784   2.626   1.206
 1308SOL    HW1 3965   2.845   2.635   1.281
 1308SOL    HW2 3966   2.716   2.570   1.245
 1309SOL     OW 3967   1.892   2.461   1.121
 1309SOL    HW1 3968   1.976   2.457   1.073
 1309SOL    HW2 3969   1.918   2.437   1.211
 1310SOL     OW 3970   2.080   2.502   1.727
 1310SOL    HW1 3971   2.173   2.521   1.706
 1310SOL    HW2 3972   2.033   2.557   1.662
 1311SOL     OW 3973   2.596   2.374   0.369
 1311SOL    HW1 3974   2.682   2.357   0.327
 1311SOL    HW2 3975   2.567   2.456   0.326
 1312SOL     OW 3976   3.491   2.413   1.115
 1312SOL    HW1 3977   3.455   2.459   1.192
 1312SOL    HW2 3978   3.583   2.445   1.111
 1313SOL     OW 3979   2.058   3.391   1.724
 1313SOL    HW1 3980   2.021   3.419   1.809
 1313SOL    HW2 3981   2.084   3.299   1.745
 1314SOL     OW 3982   2.589   2.270   1.220
 1314SOL    HW1 3983   2.527   2.196   1.214
 1314SOL    HW2 3984   2.556   2.331   1.151
 1315SOL     OW 3985   2.690   3.592   1.512
 1315SOL    HW1 3986   2.713   3.522   1.449
 1315SOL    HW2 3987   2.710   3.673   1.461
 1316SOL     OW 3988   2.019   3.016   1.499
 1316SOL    HW1 3989   2.019   2.974   1.588
 1316SOL    HW2 3990   2.043   2.940   1.442
 1317SOL     OW 3991   3.713   3.625   1.188
 1317SOL    HW1 3992   3.772   3.625   1.111
 1317SOL    HW2 3993   3.656   3.547   1.170
 1318SOL     OW 3994   3.115   3.574   1.077
 1318SOL    HW1 3995   3.202   3.618   1.070
 1318SOL    HW2 3996   3.139   3.496   1.130
 1319SOL     OW 3997   1.999   3.063   1.027
 1319SOL    HW1 3998   1.965   3.090   1.115
 1319SOL    HW2 3999   1.926   3.008   0.993
 1320SOL     OW 4000   2.561   3.566   1.742
 1320SOL    HW1 4001   2.487   3.630   1.739
 1320SOL    HW2 4002   2.604   3.582   1.655
 1321SOL     OW 4003   3.288   3.483   0.598
 1321SOL    HW1 4004   3.339   3.530   0.531
 1321SOL    HW2 4005   3.222   3.550   0.625
 1322SOL     OW 4006   1.950   3.680   1.827
 1322SOL    HW1 4007   1.927   3.594   1.866
 1322SOL    HW2 4008   2.014   3.714   1.892
 1323SOL     OW 4009   3.127   2.792   0.675
 1323SOL    HW1 4010   3.204   2.732   0.679
 1323SOL    HW2 4011   3.169   2.874   0.641
 1324SOL     OW 4012   2.580   3.133   1.464
 1324SOL    HW1 4013   2.575   3.190   1.542
 1324SOL    HW2 4014   2.497   3.151   1.417
 1325SOL     OW 4015   3.716   2.054   0.986
 1325SOL    HW1 4016   3.742   1.963   0.961
 1325SOL    HW2 4017   3.626   2.061   0.948
 1326SOL     OW 4018   2.085   2.167   0.710
 1326SOL    HW1 4019   1.996   2.206   0.698
 1326SOL    HW2 4020   2.097   2.174   0.806
 1327SOL     OW 4021   2.658   2.882   1.404
 1327SOL    HW1 4022   2.685   2.896   1.312
 1327SOL    HW2 4023   2.632   2.972   1.431
 1328SOL     OW 4024   2.240   3.200   1.519
 1328SOL    HW1 4025   2.221   3.270   1.455
 1328SOL    HW2 4026   2.165   3.139   1.506
 1329SOL     OW 4027   2.979   2.974   0.818
 1329SOL    HW1 4028   2.891   2.936   0.833
 1329SOL    HW2 4029   3.021   2.906   0.763
 1330SOL     OW 4030   2.887   2.118   0.967
 1330SOL    HW1 4031   2.887   2.067   0.883
 1330SOL    HW2 4032   2.884   2.044   1.030
 1331SOL     OW 4033   2.503   3.384   0.502
 1331SOL    HW1 4034   2.545   3.314   0.448
 1331SOL    HW2 4035   2.460   3.440   0.435
 1332SOL     OW 4036   3.701   2.238   1.426
 1332SOL    HW1 4037   3.738   2.318   1.386
 1332SOL    HW2 4038   3.678   2.182   1.350
 1333SOL     OW 4039   2.118   3.264   0.351
 1333SOL    HW1 4040   2.040   3.232   0.302
 1333SOL    HW2 4041   2.079   3.316   0.422
 1334SOL     OW 4042   2.007   2.896   1.740
 1334SOL    HW1 4043   1.929   2.865   1.791
 1334SOL    HW2 4044   2.078   2.838   1.774
 1335SOL     OW 4045   2.550   2.045   1.483
 1335SOL    HW1 4046   2.634   2.014   1.446
 1335SOL    HW2 4047   2.577   2.078   1.571
 1336SOL     OW 4048   4.086   0.148   2.977
 1336SOL    HW1 4049   4.034   0.071   2.947
 1336SOL    HW2 4050   4.177   0.114   2.966
 1337SOL     OW 4051   3.336   2.595   1.279
 1337SOL    HW1 4052   3.281   2.633   1.209
 1337SOL    HW2 4053   3.417   2.648   1.271
 1338SOL     OW 4054   1.920   2.010   0.254
 1338SOL    HW1 4055   1.867   2.060   0.190
 1338SOL    HW2 4056   2.011   2.036   0.230
 1339SOL     OW 4057   2.497   2.673   1.470
 1339SOL    HW1 4058   2.553   2.752   1.456
 1339SOL    HW2 4059   2.559   2.601   1.452
 1340SOL     OW 4060   3.371   3.661   1.074
 1340SOL    HW1 4061   3.413   3.715   1.005
 1340SOL    HW2 4062   3.439   3.596   1.096
 1341SOL     OW 4063   2.581   2.398   1.672
 1341SOL    HW1 4064   2.644   2.446   1.729
 1341SOL    HW2 4065   2.597   2.305   1.698
 1342SOL     OW 4066   3.388   3.137   1.662
 1342SOL    HW1 4067   3.374   3.096   1.749
 1342SOL    HW2 4068   3.439   3.069   1.616
 1343SOL     OW 4069   2.184   3.607   1.600
 1343SOL    HW1 4070   2.100   3.652   1.577
 1343SOL    HW2 4071   2.150   3.524   1.638
 1344SOL     OW 4072   3.557   2.713   1.176
 1344SOL    HW1 4073   3.632   2.663   1.141
 1344SOL    HW2 4074   3.535   2.775   1.106
 1345SOL     OW 4075   3.081   2.135   0.482
 1345SOL    HW1 4076   3.103   2.171   0.394
 1345SOL    HW2 4077   3.117   2.204   0.542
 1346SOL     OW 4078   2.453   2.568   0.637
 1346SOL    HW1 4079   2.491   2.657   0.645
 1346SOL    HW2 4080   2.377   2.583   0.578
 1347SOL     OW 4081   3.635   2.119   1.662
 1347SOL    HW1 4082   3.649   2.169   1.580
 1347SOL    HW2 4083   3.538   2.117   1.670
 1348SOL     OW 4084   2.516   3.582   0.974
 1348SOL    HW1 4085   2.496   3.676   0.961
 1348SOL    HW2 4086   2.607   3.574   0.940
 1349SOL     OW 4087   2.739   2.842   0.874
 1349SOL    HW1 4088   2.783   2.761   0.905
 1349SOL    HW2 4089   2.693   2.872   0.953
 1350SOL     OW 4090   2.924   2.857   0.131
 1350SOL    HW1 4091   2.912   2.812   0.046
 1350SOL    HW2 4092   2.968   2.789   0.184
 1351SOL     OW 4093   3.759   3.418   0.825
 1351SOL    HW1 4094   3.664   3.412   0.807
 1351SOL    HW2 4095   3.789   3.328   0.810
 1352SOL     OW 4096   2.082   3.138   1.828
 1352SOL    HW1 4097   2.056   3.051   1.792
 1352SOL    HW2 4098   2.023   3.144   1.905
 1353SOL     OW 4099   2.032   3.109   0.651
 1353SOL    HW1 4100   2.064   3.053   0.724
 1353SOL    HW2 4101   2.079   3.070   0.575
 1354SOL     OW 4102   2.575   3.296   1.685
 1354SOL    HW1 4103   2.495   3.256   1.724
 1354SOL    HW2 4104   2.561   3.390   1.702
 1355SOL     OW 4105   3.643   2.036   1.247
 1355SOL    HW1 4106   3.655   1.940   1.243
 1355SOL    HW2 4107   3.671   2.062   1.157
 1356SOL     OW 4108   2.207   2.309   0.498
 1356SOL    HW1 4109   2.281   2.250   0.475
 1356SOL    HW2 4110   2.168   2.264   0.575
 1357SOL     OW 4111   3.568   3.404   1.130
 1357SOL    HW1 4112   3.499   3.360   1.079
 1357SOL    HW2 4113   3.609   3.329   1.176
 1358SOL     OW 4114   2.224   2.428   1.291
 1358SOL    HW1 4115   2.274   2.355   1.334
 1358SOL    HW2 4116   2.222   2.402   1.198
 1359SOL     OW 4117   2.715   3.529   0.588
 1359SOL    HW1 4118   2.698   3.624   0.571
 1359SOL    HW2 4119   2.630   3.488   0.561
 1360SOL     OW 4120   3.265   2.107   1.107
 1360SOL    HW1 4121   3.288   2.016   1.132
 1360SOL    HW2 4122   3.220   2.140   1.187
 1361SOL     OW 4123   2.882   1.881   1.112
 1361SOL    HW1 4124   2.840   1.812   1.058
 1361SOL    HW2 4125   2.974   1.847   1.117
 1362SOL     OW 4126   2.639   3.176   0.388
 1362SOL    HW1 4127   2.583   3.098   0.404
 1362SOL    HW2 4128   2.685   3.148   0.306
 1363SOL     OW 4129   2.464   3.456   1.276
 1363SOL    HW1 4130   2.450   3.538   1.327
 1363SOL    HW2 4131   2.541   3.479   1.222
 1364SOL     OW 4132   3.161   2.323   0.664
 1364SOL    HW1 4133   3.116   2.409   0.667
 1364SOL    HW2 4134   3.147   2.290   0.755
 1365SOL     OW 4135   3.459   2.071   0.908
 1365SOL    HW1 4136   3.394   2.104   0.973
 1365SOL    HW2 4137   3.451   2.135   0.836
 1366SOL     OW 4138   1.965   2.933   0.363
 1366SOL    HW1 4139   2.059   2.939   0.385
 1366SOL    HW2 4140   1.953   2.837   0.349
 1367SOL     OW 4141   2.085   2.520   2.012
 1367SOL    HW1 4142   1.997   2.488   2.039
 1367SOL    HW2 4143   2.076   2.526   1.915
 1368SOL     OW 4144   2.072   2.222   2.815
 1368SOL    HW1 4145   2.115   2.214   2.902
 1368SOL    HW2 4146   1.989   2.173   2.830
 1369SOL     OW 4147   1.834   2.293   2.505
 1369SOL    HW1 4148   1.751   2.306   2.553
 1369SOL    HW2 4149   1.809   2.221   2.444
 1370SOL     OW 4150   2.431   3.195   3.054
 1370SOL    HW1 4151   2.345   3.223   3.019
 1370SOL    HW2 4152   2.491   3.207   2.978
 1371SOL     OW 4153   3.475   3.362   2.567
 1371SOL    HW1 4154   3.415   3.348   2.641
 1371SOL    HW2 4155   3.412   3.373   2.494
 1372SOL     OW 4156   3.007   2.560   2.550
 1372SOL    HW1 4157   3.048   2.647   2.535
 1372SOL    HW2 4158   2.959   2.575   2.633
 1373SOL     OW 4159   3.664   2.415   2.070
 1373SOL    HW1 4160   3.686   2.346   2.004
 1373SOL    HW2 4161   3.586   2.375   2.113
 1374SOL     OW 4162   2.640   2.936   2.905
 1374SOL    HW1 4163   2.602   2.900   2.986
 1374SOL    HW2 4164   2.608   3.028   2.903
 1375SOL     OW 4165   2.534   2.796   2.511
 1375SOL    HW1 4166   2.609   2.803   2.573
 1375SOL    HW2 4167   2.477   2.870   2.538
 1376SOL     OW 4168   2.189   3.303   2.957
 1376SOL    HW1 4169   2.123   3.240   2.923
 1376SOL    HW2 4170   2.217   3.350   2.876
 1377SOL     OW 4171   3.425   2.289   2.594
 1377SOL    HW1 4172   3.349   2.291   2.534
 1377SOL    HW2 4173   3.401   2.359   2.657
 1378SOL     OW 4174   2.091   3.607   2.304
 1378SOL    HW1 4175   2.124   3.673   2.368
 1378SOL    HW2 4176   2.166   3.604   2.242
 1379SOL     OW 4177   2.149   3.341   2.358
 1379SOL    HW1 4178   2.112   3.430   2.362
 1379SOL    HW2 4179   2.100   3.293   2.427
 1380SOL     OW 4180   2.157   2.988   2.714
 1380SOL    HW1 4181   2.171   2.897   2.747
 1380SOL    HW2 4182   2.105   3.027   2.786
 1381SOL     OW 4183   2.406   2.813   2.042
 1381SOL    HW1 4184   2.453   2.873   1.981
 1381SOL    HW2 4185   2.453   2.836   2.125
 1382SOL     OW 4186   1.432   4.142   0.298
 1382SOL    HW1 4187   1.401   4.225   0.257
 1382SOL    HW2 4188   1.348   4.108   0.335
 1383SOL     OW 4189   1.971   2.539   2.445
 1383SOL    HW1 4190   1.932   2.454   2.472
 1383SOL    HW2 4191   1.970   2.590   2.528
 1384SOL     OW 4192   3.697   3.598   2.145
 1384SOL    HW1 4193   3.755   3.594   2.224
 1384SOL    HW2 4194   3.719   3.686   2.110
 1385SOL     OW 4195   1.926   3.438   1.957
 1385SOL    HW1 4196   1.887   3.352   1.977
 1385SOL    HW2 4197   1.903   3.489   2.037
 1386SOL     OW 4198   3.565   2.818   2.578
 1386SOL    HW1 4199   3.649   2.770   2.586
 1386SOL    HW2 4200   3.568   2.852   2.488
 1387SOL     OW 4201   3.524   2.952   2.292
 1387SOL    HW1 4202   3.602   2.934   2.237
 1387SOL    HW2 4203   3.556   3.027   2.347
 1388SOL     OW 4204   2.456   3.255   2.592
 1388SOL    HW1 4205   2.425   3.163   2.581
 1388SOL    HW2 4206   2.443   3.289   2.502
 1389SOL     OW 4207   2.698   1.878   2.386
 1389SOL    HW1 4208   2.733   1.964   2.356
 1389SOL    HW2 4209   2.602   1.895   2.384
 1390SOL     OW 4210   4.221   0.753   0.113
 1390SOL    HW1 4211   4.280   0.699   0.059
 1390SOL    HW2 4212   4.139   0.702   0.115
 1391SOL     OW 4213   3.344   2.841   2.110
 1391SOL    HW1 4214   3.289   2.784   2.165
 1391SOL    HW2 4215   3.412   2.870   2.173
 1392SOL     OW 4216   3.281   3.302   2.758
 1392SOL    HW1 4217   3.286   3.293   2.854
 1392SOL    HW2 4218   3.274   3.208   2.730
 1393SOL     OW 4219   3.502   3.664   2.385
 1393SOL    HW1 4220   3.489   3.605   2.309
 1393SOL    HW2 4221   3.536   3.605   2.453
 1394SOL     OW 4222   2.438   2.542   2.149
 1394SOL    HW1 4223   2.434   2.629   2.107
 1394SOL    HW2 4224   2.371   2.551   2.220
 1395SOL     OW 4225   3.153   2.251   2.817
 1395SOL    HW1 4226   3.064   2.213   2.806
 1395SOL    HW2 4227   3.188   2.192   2.887
 1396SOL     OW 4228   3.431   3.522   2.153
 1396SOL    HW1 4229   3.525   3.539   2.134
 1396SOL    HW2 4230   3.406   3.466   2.077
 1397SOL     OW 4231   2.914   2.540   2.293
 1397SOL    HW1 4232   2.933   2.533   2.389
 1397SOL    HW2 4233   2.826   2.497   2.287
 1398SOL     OW 4234   1.959   2.711   2.658
 1398SOL    HW1 4235   2.044   2.712   2.706
 1398SOL    HW2 4236   1.908   2.776   2.709
 1399SOL     OW 4237   2.707   2.202   2.070
 1399SOL    HW1 4238   2.763   2.233   1.996
 1399SOL    HW2 4239   2.652   2.135   2.027
 1400SOL     OW 4240   3.268   3.004   2.407
 1400SOL    HW1 4241   3.352   2.992   2.359
 1400SOL    HW2 4242   3.222   3.070   2.352
 1401SOL     OW 4243   2.400   2.016   2.739
 1401SOL    HW1 4244   2.424   2.024   2.833
 1401SOL    HW2 4245   2.402   2.108   2.709
 1402SOL     OW 4246   2.884   3.314   2.296
 1402SOL    HW1 4247   2.855   3.389   2.241
 1402SOL    HW2 4248   2.828   3.327   2.375
 1403SOL     OW 4249   2.196   3.697   2.732
 1403SOL    HW1 4250   2.233   3.607   2.737
 1403SOL    HW2 4251   2.271   3.752   2.763
 1404SOL     OW 4252   3.512   2.998   2.787
 1404SOL    HW1 4253   3.542   2.934   2.720
 1404SOL    HW2 4254   3.422   3.017   2.753
 1405SOL     OW 4255   2.143   2.785   2.135
 1405SOL    HW1 4256   2.232   2.796   2.098
 1405SOL    HW2 4257   2.122   2.694   2.107
 1406SOL     OW 4258   3.354   2.641   2.573
 1406SOL    HW1 4259   3.356   2.586   2.653
 1406SOL    HW2 4260   3.429   2.701   2.585
 1407SOL     OW 4261   3.022   3.569   2.032
 1407SOL    HW1 4262   2.940   3.558   2.084
 1407SOL    HW2 4263   2.997   3.531   1.947
 1408SOL     OW 4264   3.562   3.200   1.971
 1408SOL    HW1 4265   3.504   3.277   1.958
 1408SOL    HW2 4266   3.500   3.128   1.950
 1409SOL     OW 4267   2.321   3.633   2.151
 1409SOL    HW1 4268   2.373   3.684   2.216
 1409SOL    HW2 4269   2.390   3.583   2.105
 1410SOL     OW 4270   3.248   1.983   2.317
 1410SOL    HW1 4271   3.257   1.959   2.223
 1410SOL    HW2 4272   3.334   1.956   2.353
 1411SOL     OW 4273   2.761   3.534   2.690
 1411SOL    HW1 4274   2.837   3.484   2.725
 1411SOL    HW2 4275   2.736   3.479   2.613
 1412SOL     OW 4276   2.242   2.540   2.343
 1412SOL    HW1 4277   2.238   2.442   2.341
 1412SOL    HW2 4278   2.152   2.561   2.371
 1413SOL     OW 4279   2.537   1.992   1.962
 1413SOL    HW1 4280   2.587   1.913   1.987
 1413SOL    HW2 4281   2.472   1.956   1.900
 1414SOL     OW 4282   1.171   0.248   0.172
 1414SOL    HW1 4283   1.185   0.276   0.264
 1414SOL    HW2 4284   1.132   0.329   0.133
 1415SOL     OW 4285   2.596   3.209   2.834
 1415SOL    HW1 4286   2.690   3.213   2.809
 1415SOL    HW2 4287   2.551   3.227   2.750
 1416SOL     OW 4288   2.803   2.360   2.763
 1416SOL    HW1 4289   2.777   2.351   2.669
 1416SOL    HW2 4290   2.841   2.272   2.780
 1417SOL     OW 4291   2.434   1.935   2.358
 1417SOL    HW1 4292   2.356   1.938   2.416
 1417SOL    HW2 4293   2.419   2.013   2.301
 1418SOL     OW 4294   3.353   3.031   1.915
 1418SOL    HW1 4295   3.351   2.957   1.978
 1418SOL    HW2 4296   3.275   3.083   1.944
 1419SOL     OW 4297   2.121   1.924   2.020
 1419SOL    HW1 4298   2.168   1.996   1.974
 1419SOL    HW2 4299   2.194   1.879   2.067
 1420SOL     OW 4300   2.804   2.115   2.312
 1420SOL    HW1 4301   2.774   2.148   2.225
 1420SOL    HW2 4302   2.900   2.137   2.310
 1421SOL     OW 4303   3.039   3.409   2.674
 1421SOL    HW1 4304   3.067   3.476   2.609
 1421SOL    HW2 4305   3.125   3.374   2.704
 1422SOL     OW 4306   2.359   3.010   2.538
 1422SOL    HW1 4307   2.289   2.999   2.606
 1422SOL    HW2 4308   2.307   2.999   2.456
 1423SOL     OW 4309   3.120   3.618   2.506
 1423SOL    HW1 4310   3.170   3.690   2.464
 1423SOL    HW2 4311   3.034   3.662   2.521
 1424SOL     OW 4312   2.876   2.323   1.884
 1424SOL    HW1 4313   2.841   2.409   1.855
 1424SOL    HW2 4314   2.932   2.346   1.961
 1425SOL     OW 4315   4.024   0.220   0.228
 1425SOL    HW1 4316   4.084   0.158   0.274
 1425SOL    HW2 4317   4.056   0.306   0.262
 1426SOL     OW 4318   2.466   2.007   2.998
 1426SOL    HW1 4319   2.471   1.941   3.069
 1426SOL    HW2 4320   2.458   2.090   3.048
 1427SOL     OW 4321   2.745   2.317   2.502
 1427SOL    HW1 4322   2.691   2.369   2.440
 1427SOL    HW2 4323   2.763   2.238   2.449
 1428SOL     OW 4324   2.890   1.920   2.587
 1428SOL    HW1 4325   2.822   1.913   2.518
 1428SOL    HW2 4326   2.867   1.846   2.646
 1429SOL     OW 4327   3.265   3.046   2.679
 1429SOL    HW1 4328   3.184   3.000   2.705
 1429SOL    HW2 4329   3.267   3.030   2.583
 1430SOL     OW 4330   3.327   2.461   2.787
 1430SOL    HW1 4331   3.259   2.392   2.803
 1430SOL    HW2 4332   3.388   2.446   2.862
 1431SOL     OW 4333   3.688   2.644   2.216
 1431SOL    HW1 4334   3.735   2.599   2.289
 1431SOL    HW2 4335   3.666   2.569   2.158
 1432SOL     OW 4336   2.375   3.319   2.002
 1432SOL    HW1 4337   2.304   3.277   2.053
 1432SOL    HW2 4338   2.363   3.277   1.915
 1433SOL     OW 4339   3.621   3.139   2.450
 1433SOL    HW1 4340   3.714   3.132   2.477
 1433SOL    HW2 4341   3.590   3.218   2.498
 1434SOL     OW 4342   3.226   2.400   1.927
 1434SOL    HW1 4343   3.154   2.391   1.993
 1434SOL    HW2 4344   3.279   2.320   1.948
 1435SOL     OW 4345   2.382   2.118   2.163
 1435SOL    HW1 4346   2.436   2.078   2.094
 1435SOL    HW2 4347   2.349   2.199   2.119
 1436SOL     OW 4348   3.035   3.071   2.935
 1436SOL    HW1 4349   2.994   2.984   2.933
 1436SOL    HW2 4350   2.972   3.125   2.884
 1437SOL     OW 4351   2.559   2.882   2.254
 1437SOL    HW1 4352   2.545   2.848   2.345
 1437SOL    HW2 4353   2.647   2.841   2.233
 1438SOL     OW 4354   2.189   2.991   2.322
 1438SOL    HW1 4355   2.196   3.054   2.248
 1438SOL    HW2 4356   2.172   2.908   2.274
 1439SOL     OW 4357   2.421   2.301   2.691
 1439SOL    HW1 4358   2.446   2.367   2.623
 1439SOL    HW2 4359   2.474   2.331   2.768
 1440SOL     OW 4360   3.136   3.211   2.277
 1440SOL    HW1 4361   3.185   3.284   2.321
 1440SOL    HW2 4362   3.043   3.239   2.291
 1441SOL     OW 4363   3.349   2.486   2.340
 1441SOL    HW1 4364   3.357   2.536   2.423
 1441SOL    HW2 4365   3.286   2.542   2.291
 1442SOL     OW 4366   3.165   2.681   2.857
 1442SOL    HW1 4367   3.073   2.666   2.830
 1442SOL    HW2 4368   3.213   2.608   2.815
 1443SOL     OW 4369   3.026   2.369   2.109
 1443SOL    HW1 4370   3.046   2.298   2.173
 1443SOL    HW2 4371   2.987   2.436   2.169
 1444SOL     OW 4372   4.060   1.019   0.085
 1444SOL    HW1 4373   4.090   0.966   0.161
 1444SOL    HW2 4374   4.122   1.092   0.087
 1445SOL     OW 4375   2.564   2.399   2.900
 1445SOL    HW1 4376   2.652   2.400   2.860
 1445SOL    HW2 4377   2.566   2.472   2.964
 1446SOL     OW 4378   2.188   1.933   2.485
 1446SOL    HW1 4379   2.146   2.019   2.503
 1446SOL    HW2 4380   2.186   1.892   2.573
 1447SOL     OW 4381   3.455   2.285   2.193
 1447SOL    HW1 4382   3.498   2.226   2.258
 1447SOL    HW2 4383   3.415   2.354   2.250
 1448SOL     OW 4384   2.899   2.610   2.798
 1448SOL    HW1 4385   2.886   2.632   2.893
 1448SOL    HW2 4386   2.862   2.519   2.795
 1449SOL     OW 4387   3.348   2.157   1.978
 1449SOL    HW1 4388   3.317   2.071   2.012
 1449SOL    HW2 4389   3.393   2.196   2.056
 1450SOL     OW 4390   3.171   2.669   1.945
 1450SOL    HW1 4391   3.203   2.580   1.923
 1450SOL    HW2 4392   3.253   2.720   1.953
 1451SOL     OW 4393   2.863   3.209   2.744
 1451SOL    HW1 4394   2.892   3.130   2.694
 1451SOL    HW2 4395   2.925   3.277   2.713
 1452SOL     OW 4396   2.192   2.734   2.809
 1452SOL    HW1 4397   2.231   2.740   2.898
 1452SOL    HW2 4398   2.213   2.642   2.784
 1453SOL     OW 4399   2.205   2.459   2.768
 1453SOL    HW1 4400   2.144   2.383   2.768
 1453SOL    HW2 4401   2.285   2.418   2.731
 1454SOL     OW 4402   1.909   3.145   2.041
 1454SOL    HW1 4403   1.818   3.172   2.017
 1454SOL    HW2 4404   1.894   3.059   2.083
 1455SOL     OW 4405   6.267   3.645   2.808
 1455SOL    HW1 4406   6.239   3.573   2.748
 1455SOL    HW2 4407   6.360   3.658   2.782
 1456SOL     OW 4408   2.316   3.442   2.751
 1456SOL    HW1 4409   2.395   3.495   2.772
 1456SOL    HW2 4410   2.353   3.374   2.692
 1457SOL     OW 4411   2.864   2.668   3.055
 1457SOL    HW1 4412   2.905   2.665   3.142
 1457SOL    HW2 4413   2.769   2.663   3.076
 1458SOL     OW 4414   6.196   2.459   3.029
 1458SOL    HW1 4415   6.291   2.478   3.016
 1458SOL    HW2 4416   6.196   2.428   3.122
 1459SOL     OW 4417   2.674   2.422   2.243
 1459SOL    HW1 4418   2.675   2.346   2.182
 1459SOL    HW2 4419   2.592   2.468   2.216
 1460SOL     OW 4420   3.482   2.400   3.001
 1460SOL    HW1 4421   3.424   2.404   3.079
 1460SOL    HW2 4422   3.567   2.427   3.038
 1461SOL     OW 4423   2.298   2.340   2.023
 1461SOL    HW1 4424   2.363   2.403   2.058
 1461SOL    HW2 4425   2.217   2.395   2.026
 1462SOL     OW 4426   4.171   0.909   0.325
 1462SOL    HW1 4427   4.143   0.846   0.396
 1462SOL    HW2 4428   4.203   0.846   0.257
 1463SOL     OW 4429   3.164   2.653   2.219
 1463SOL    HW1 4430   3.078   2.628   2.255
 1463SOL    HW2 4431   3.147   2.653   2.123
 1464SOL     OW 4432   3.525   3.584   2.893
 1464SOL    HW1 4433   3.614   3.596   2.855
 1464SOL    HW2 4434   3.542   3.515   2.960
 1465SOL     OW 4435   6.318   3.099   2.893
 1465SOL    HW1 4436   6.282   3.108   2.983
 1465SOL    HW2 4437   6.249   3.044   2.849
 1466SOL     OW 4438   3.601   2.095   2.329
 1466SOL    HW1 4439   3.647   2.072   2.246
 1466SOL    HW2 4440   3.564   2.008   2.357
 1467SOL     OW 4441   3.280   3.424   2.379
 1467SOL    HW1 4442   3.317   3.464   2.298
 1467SOL    HW2 4443   3.222   3.493   2.415
 1468SOL     OW 4444   3.136   2.798   2.524
 1468SOL    HW1 4445   3.214   2.742   2.543
 1468SOL    HW2 4446   3.175   2.866   2.466
 1469SOL     OW 4447   2.544   3.530   2.013
 1469SOL    HW1 4448   2.558   3.537   1.916
 1469SOL    HW2 4449   2.492   3.446   2.018
 1470SOL     OW 4450   3.720   2.045   2.837
 1470SOL    HW1 4451   3.732   1.948   2.837
 1470SOL    HW2 4452   3.626   2.055   2.812
 1471SOL     OW 4453   2.078   2.171   2.548
 1471SOL    HW1 4454   1.993   2.215   2.532
 1471SOL    HW2 4455   2.089   2.188   2.644
 1472SOL     OW 4456   2.792   2.770   2.197
 1472SOL    HW1 4457   2.830   2.762   2.107
 1472SOL    HW2 4458   2.835   2.695   2.242
 1473SOL     OW 4459   3.351   3.376   1.936
 1473SOL    HW1 4460   3.275   3.318   1.958
 1473SOL    HW2 4461   3.345   3.382   1.840
 1474SOL     OW 4462   2.953   2.975   2.635
 1474SOL    HW1 4463   2.872   2.922   2.647
 1474SOL    HW2 4464   3.011   2.912   2.589
 1475SOL     OW 4465   2.920   2.110   2.790
 1475SOL    HW1 4466   2.914   2.057   2.708
 1475SOL    HW2 4467   2.904   2.042   2.858
 1476SOL     OW 4468   2.457   3.333   2.328
 1476SOL    HW1 4469   2.492   3.272   2.261
 1476SOL    HW2 4470   2.365   3.344   2.301
 1477SOL     OW 4471   2.168   3.198   2.135
 1477SOL    HW1 4472   2.077   3.187   2.103
 1477SOL    HW2 4473   2.156   3.254   2.214
 1478SOL     OW 4474   2.022   2.238   1.726
 1478SOL    HW1 4475   1.924   2.237   1.728
 1478SOL    HW2 4476   2.040   2.334   1.729
 1479SOL     OW 4477   1.878   1.985   2.124
 1479SOL    HW1 4478   1.844   2.039   2.052
 1479SOL    HW2 4479   1.970   1.969   2.094
 1480SOL     OW 4480   3.154   3.197   2.006
 1480SOL    HW1 4481   3.062   3.181   1.982
 1480SOL    HW2 4482   3.150   3.197   2.104
 1481SOL     OW 4483   3.321   3.749   2.840
 1481SOL    HW1 4484   3.257   3.694   2.795
 1481SOL    HW2 4485   3.397   3.689   2.850
 1482SOL     OW 4486   3.069   2.191   2.312
 1482SOL    HW1 4487   3.133   2.117   2.313
 1482SOL    HW2 4488   3.096   2.238   2.394
 1483SOL     OW 4489   2.451   2.526   2.528
 1483SOL    HW1 4490   2.487   2.617   2.525
 1483SOL    HW2 4491   2.377   2.533   2.465
 1484SOL     OW 4492   2.516   3.614   2.802
 1484SOL    HW1 4493   2.504   3.710   2.788
 1484SOL    HW2 4494   2.606   3.598   2.767
 1485SOL     OW 4495   2.741   2.814   2.691
 1485SOL    HW1 4496   2.786   2.737   2.729
 1485SOL    HW2 4497   2.701   2.856   2.771
 1486SOL     OW 4498   2.908   2.736   1.956
 1486SOL    HW1 4499   2.889   2.820   1.910
 1486SOL    HW2 4500   3.003   2.723   1.942
 1487SOL     OW 4501   3.726   3.397   2.674
 1487SOL    HW1 4502   3.638   3.390   2.633
 1487SOL    HW2 4503   3.724   3.323   2.737
 1488SOL     OW 4504   2.033   3.130   2.506
 1488SOL    HW1 4505   2.064   3.087   2.587
 1488SOL    HW2 4506   2.077   3.075   2.438
 1489SOL     OW 4507   2.232   2.276   2.347
 1489SOL    HW1 4508   2.279   2.204   2.304
 1489SOL    HW2 4509   2.184   2.232   2.420
 1490SOL     OW 4510   2.686   3.376   2.482
 1490SOL    HW1 4511   2.620   3.393   2.413
 1490SOL    HW2 4512   2.638   3.312   2.537
 1491SOL     OW 4513   3.239   2.065   2.995
 1491SOL    HW1 4514   3.276   1.983   2.958
 1491SOL    HW2 4515   3.190   2.030   3.071
 1492SOL     OW 4516   2.882   1.883   2.956
 1492SOL    HW1 4517   2.841   1.830   3.027
 1492SOL    HW2 4518   2.874   1.821   2.880
 1493SOL     OW 4519   2.598   3.141   2.178
 1493SOL    HW1 4520   2.579   3.050   2.209
 1493SOL    HW2 4521   2.691   3.151   2.199
 1494SOL     OW 4522   3.264   1.906   2.054
 1494SOL    HW1 4523   3.310   1.834   2.008
 1494SOL    HW2 4524   3.177   1.864   2.072
 1495SOL     OW 4525   3.142   2.319   2.542
 1495SOL    HW1 4526   3.095   2.404   2.541
 1495SOL    HW2 4527   3.139   2.294   2.635
 1496SOL     OW 4528   3.457   2.076   2.770
 1496SOL    HW1 4529   3.399   2.116   2.836
 1496SOL    HW2 4530   3.450   2.139   2.696
 1497SOL     OW 4531   1.894   2.898   2.172
 1497SOL    HW1 4532   1.986   2.871   2.152
 1497SOL    HW2 4533   1.856   2.810   2.191
 1498SOL     OW 4534   2.781   3.534   2.164
 1498SOL    HW1 4535   2.697   3.528   2.115
 1498SOL    HW2 4536   2.761   3.606   2.228
 1499SOL     OW 4537   1.916   4.311   0.141
 1499SOL    HW1 4538   1.888   4.232   0.091
 1499SOL    HW2 4539   2.004   4.285   0.174
 1500SOL     OW 4540   2.066   3.997   0.995
 1500SOL    HW1 4541   2.102   3.959   1.077
 1500SOL    HW2 4542   1.974   3.963   0.996
 1501SOL     OW 4543   1.801   4.035   0.682
 1501SOL    HW1 4544   1.731   4.026   0.748
 1501SOL    HW2 4545   1.771   3.973   0.613
 1502SOL     OW 4546   3.611   0.065   0.340
 1502SOL    HW1 4547   3.672   0.076   0.265
 1502SOL    HW2 4548   3.591  -0.030   0.337
 1503SOL     OW 4549   2.320   4.096   1.523
 1503SOL    HW1 4550   2.393   4.033   1.510
 1503SOL    HW2 4551   2.242   4.037   1.516
 1504SOL     OW 4552   3.456   4.100   0.767
 1504SOL    HW1 4553   3.381   4.125   0.710
 1504SOL    HW2 4554   3.446   4.165   0.839
 1505SOL     OW 4555   1.784   4.302   0.577
 1505SOL    HW1 4556   1.786   4.205   0.582
 1505SOL    HW2 4557   1.826   4.326   0.661
 1506SOL     OW 4558   2.671   3.801   0.571
 1506SOL    HW1 4559   2.716   3.875   0.526
 1506SOL    HW2 4560   2.577   3.823   0.556
 1507SOL     OW 4561   2.204   3.962   1.826
 1507SOL    HW1 4562   2.233   4.049   1.798
 1507SOL    HW2 4563   2.108   3.975   1.835
 1508SOL     OW 4564   3.144   4.108   0.934
 1508SOL    HW1 4565   3.056   4.068   0.938
 1508SOL    HW2 4566   3.195   4.044   0.987
 1509SOL     OW 4567   3.206   4.271   1.705
 1509SOL    HW1 4568   3.203   4.312   1.793
 1509SOL    HW2 4569   3.247   4.184   1.724
 1510SOL     OW 4570   2.903   4.150   1.160
 1510SOL    HW1 4571   2.806   4.151   1.174
 1510SOL    HW2 4572   2.911   4.073   1.100
 1511SOL     OW 4573   2.907   0.104   0.441
 1511SOL    HW1 4574   2.986   0.145   0.482
 1511SOL    HW2 4575   2.836   0.138   0.499
 1512SOL     OW 4576   1.910   0.069   0.797
 1512SOL    HW1 4577   2.006   0.064   0.796
 1512SOL    HW2 4578   1.893   0.157   0.759
 1513SOL     OW 4579   3.542   4.327   1.879
 1513SOL    HW1 4580   3.631   4.365   1.880
 1513SOL    HW2 4581   3.553   4.250   1.821
 1514SOL     OW 4582   2.399   3.832   0.937
 1514SOL    HW1 4583   2.412   3.883   1.020
 1514SOL    HW2 4584   2.416   3.898   0.869
 1515SOL     OW 4585   3.381   0.109   0.755
 1515SOL    HW1 4586   3.382   0.049   0.832
 1515SOL    HW2 4587   3.405   0.193   0.796
 1516SOL     OW 4588   2.079   3.960   1.498
 1516SOL    HW1 4589   2.025   4.025   1.543
 1516SOL    HW2 4590   2.031   3.877   1.518
 1517SOL     OW 4591   3.199   3.822   0.444
 1517SOL    HW1 4592   3.139   3.837   0.368
 1517SOL    HW2 4593   3.283   3.810   0.397
 1518SOL     OW 4594   3.303   4.020   1.753
 1518SOL    HW1 4595   3.304   4.002   1.850
 1518SOL    HW2 4596   3.248   3.948   1.720
 1519SOL     OW 4597   2.683   3.955   1.735
 1519SOL    HW1 4598   2.766   3.906   1.726
 1519SOL    HW2 4599   2.646   3.918   1.817
 1520SOL     OW 4600   3.200   4.323   1.438
 1520SOL    HW1 4601   3.209   4.295   1.531
 1520SOL    HW2 4602   3.125   4.384   1.444
 1521SOL     OW 4603   2.412   3.872   0.521
 1521SOL    HW1 4604   2.333   3.828   0.556
 1521SOL    HW2 4605   2.375   3.932   0.454
 1522SOL     OW 4606   2.806   4.006   0.457
 1522SOL    HW1 4607   2.805   4.093   0.414
 1522SOL    HW2 4608   2.894   4.007   0.499
 1523SOL     OW 4609   1.923   4.270   1.378
 1523SOL    HW1 4610   2.020   4.277   1.378
 1523SOL    HW2 4611   1.895   4.363   1.362
 1524SOL     OW 4612   2.424   3.965   1.177
 1524SOL    HW1 4613   2.468   3.922   1.252
 1524SOL    HW2 4614   2.330   3.954   1.200
 1525SOL     OW 4615   2.867   3.784   0.770
 1525SOL    HW1 4616   2.802   3.803   0.700
 1525SOL    HW2 4617   2.827   3.706   0.812
 1526SOL     OW 4618   3.372   4.271   0.965
 1526SOL    HW1 4619   3.285   4.229   0.979
 1526SOL    HW2 4620   3.413   4.266   1.053
 1527SOL     OW 4621   2.293   4.044   0.325
 1527SOL    HW1 4622   2.328   4.000   0.245
 1527SOL    HW2 4623   2.249   4.121   0.285
 1528SOL     OW 4624   2.744   3.810   1.359
 1528SOL    HW1 4625   2.780   3.776   1.275
 1528SOL    HW2 4626   2.820   3.864   1.390
 1529SOL     OW 4627   3.144   4.096   1.284
 1529SOL    HW1 4628   3.168   4.175   1.336
 1529SOL    HW2 4629   3.060   4.124   1.242
 1530SOL     OW 4630   2.350   4.283   0.886
 1530SOL    HW1 4631   2.347   4.325   0.798
 1530SOL    HW2 4632   2.444   4.294   0.910
 1531SOL     OW 4633   2.354   3.746   1.759
 1531SOL    HW1 4634   2.292   3.691   1.707
 1531SOL    HW2 4635   2.301   3.826   1.775
 1532SOL     OW 4636   2.163   3.913   1.238
 1532SOL    HW1 4637   2.124   3.932   1.326
 1532SOL    HW2 4638   2.147   3.817   1.230
 1533SOL     OW 4639   2.608   0.012   0.953
 1533SOL    HW1 4640   2.692   0.026   0.905
 1533SOL    HW2 4641   2.576   0.104   0.963
 1534SOL     OW 4642   2.179   3.776   0.647
 1534SOL    HW1 4643   2.141   3.864   0.667
 1534SOL    HW2 4644   2.182   3.734   0.734
 1535SOL     OW 4645   3.542   4.127   0.349
 1535SOL    HW1 4646   3.545   4.042   0.396
 1535SOL    HW2 4647   3.447   4.146   0.341
 1536SOL     OW 4648   3.403   3.984   0.104
 1536SOL    HW1 4649   3.402   3.907   0.163
 1536SOL    HW2 4650   3.485   4.029   0.129
 1537SOL     OW 4651   2.165   4.234   1.074
 1537SOL    HW1 4652   2.139   4.146   1.040
 1537SOL    HW2 4653   2.234   4.259   1.009
 1538SOL     OW 4654   2.965   4.156   1.616
 1538SOL    HW1 4655   2.887   4.197   1.657
 1538SOL    HW2 4656   3.039   4.204   1.656
 1539SOL     OW 4657   2.953   3.955   1.436
 1539SOL    HW1 4658   2.952   4.022   1.507
 1539SOL    HW2 4659   3.030   3.984   1.385
 1540SOL     OW 4660   1.865   4.236   1.110
 1540SOL    HW1 4661   1.946   4.231   1.058
 1540SOL    HW2 4662   1.899   4.229   1.201
 1541SOL     OW 4663   2.071   4.210   1.675
 1541SOL    HW1 4664   2.148   4.217   1.616
 1541SOL    HW2 4665   2.034   4.300   1.669
 1542SOL     OW 4666   2.594   4.329   0.227
 1542SOL    HW1 4667   2.683   4.294   0.249
 1542SOL    HW2 4668   2.563   4.360   0.315
 1543SOL     OW 4669   3.492   4.240   1.203
 1543SOL    HW1 4670   3.472   4.185   1.280
 1543SOL    HW2 4671   3.588   4.227   1.192
 1544SOL     OW 4672   2.633   4.157   1.155
 1544SOL    HW1 4673   2.555   4.099   1.153
 1544SOL    HW2 4674   2.615   4.221   1.083
 1545SOL     OW 4675   3.592   3.879   0.479
 1545SOL    HW1 4676   3.669   3.829   0.448
 1545SOL    HW2 4677   3.530   3.808   0.498
 1546SOL     OW 4678   3.719   3.850   0.970
 1546SOL    HW1 4679   3.751   3.762   0.944
 1546SOL    HW2 4680   3.628   3.851   0.937
 1547SOL     OW 4681   2.072   4.017   0.719
 1547SOL    HW1 4682   1.975   4.028   0.705
 1547SOL    HW2 4683   2.078   4.018   0.816
 1548SOL     OW 4684   2.928   3.931   0.995
 1548SOL    HW1 4685   2.910   3.892   0.908
 1548SOL    HW2 4686   2.906   3.855   1.053
 1549SOL     OW 4687   3.645   4.081   1.451
 1549SOL    HW1 4688   3.696   4.161   1.431
 1549SOL    HW2 4689   3.655   4.027   1.370
 1550SOL     OW 4690   2.530   3.912   1.499
 1550SOL    HW1 4691   2.604   3.882   1.443
 1550SOL    HW2 4692   2.577   3.931   1.583
 1551SOL     OW 4693   3.970   1.947   3.053
 1551SOL    HW1 4694   3.897   1.896   3.093
 1551SOL    HW2 4695   3.991   1.894   2.974
 1552SOL     OW 4696   1.880   3.837   0.383
 1552SOL    HW1 4697   1.898   3.831   0.287
 1552SOL    HW2 4698   1.941   3.771   0.419
 1553SOL     OW 4699   2.724   4.235   1.732
 1553SOL    HW1 4700   2.634   4.260   1.704
 1553SOL    HW2 4701   2.715   4.139   1.743
 1554SOL     OW 4702   3.054   4.032   0.553
 1554SOL    HW1 4703   3.117   3.966   0.521
 1554SOL    HW2 4704   3.112   4.100   0.592
 1555SOL     OW 4705   3.561   4.107   1.714
 1555SOL    HW1 4706   3.584   4.093   1.620
 1555SOL    HW2 4707   3.470   4.070   1.719
 1556SOL     OW 4708   3.697   3.914   1.234
 1556SOL    HW1 4709   3.703   3.822   1.264
 1556SOL    HW2 4710   3.695   3.900   1.137
 1557SOL     OW 4711   2.186   4.192   0.538
 1557SOL    HW1 4712   2.230   4.130   0.478
 1557SOL    HW2 4713   2.144   4.132   0.602
 1558SOL     OW 4714   2.192   4.283   1.339
 1558SOL    HW1 4715   2.253   4.218   1.378
 1558SOL    HW2 4716   2.192   4.257   1.244
 1559SOL     OW 4717   3.278   3.943   1.104
 1559SOL    HW1 4718   3.276   3.852   1.137
 1559SOL    HW2 4719   3.237   3.993   1.177
 1560SOL     OW 4720   2.868   3.690   1.137
 1560SOL    HW1 4721   2.812   3.610   1.136
 1560SOL    HW2 4722   2.956   3.652   1.119
 1561SOL     OW 4723   3.215   4.210   0.684
 1561SOL    HW1 4724   3.244   4.303   0.691
 1561SOL    HW2 4725   3.183   4.190   0.774
 1562SOL     OW 4726   3.458   3.870   0.912
 1562SOL    HW1 4727   3.395   3.905   0.978
 1562SOL    HW2 4728   3.456   3.941   0.845
 1563SOL     OW 4729   2.065   3.971   2.840
 1563SOL    HW1 4730   2.107   3.890   2.808
 1563SOL    HW2 4731   1.971   3.945   2.847
 1564SOL     OW 4732   1.880   4.093   2.499
 1564SOL    HW1 4733   1.802   4.112   2.553
 1564SOL    HW2 4734   1.843   4.029   2.435
 1565SOL     OW 4735   3.407   4.327   2.117
 1565SOL    HW1 4736   3.467   4.326   2.039
 1565SOL    HW2 4737   3.423   4.238   2.155
 1566SOL     OW 4738   3.401   4.135   2.511
 1566SOL    HW1 4739   3.305   4.130   2.529
 1566SOL    HW2 4740   3.416   4.231   2.526
 1567SOL     OW 4741   1.270   1.679   0.318
 1567SOL    HW1 4742   1.260   1.633   0.233
 1567SOL    HW2 4743   1.208   1.752   0.309
 1568SOL     OW 4744   1.994   4.287   2.345
 1568SOL    HW1 4745   1.953   4.217   2.398
 1568SOL    HW2 4746   2.075   4.306   2.395
 1569SOL     OW 4747   2.714   3.740   2.333
 1569SOL    HW1 4748   2.743   3.832   2.317
 1569SOL    HW2 4749   2.617   3.751   2.337
 1570SOL     OW 4750   3.165   4.036   2.847
 1570SOL    HW1 4751   3.081   3.996   2.816
 1570SOL    HW2 4752   3.217   3.958   2.869
 1571SOL     OW 4753   1.948   0.142   2.591
 1571SOL    HW1 4754   2.021   0.080   2.573
 1571SOL    HW2 4755   1.998   0.226   2.593
 1572SOL     OW 4756   2.802   4.080   2.059
 1572SOL    HW1 4757   2.876   4.036   2.017
 1572SOL    HW2 4758   2.803   4.040   2.149
 1573SOL     OW 4759   2.389   3.872   2.812
 1573SOL    HW1 4760   2.366   3.893   2.904
 1573SOL    HW2 4761   2.388   3.961   2.772
 1574SOL     OW 4762   3.384   0.072   2.572
 1574SOL    HW1 4763   3.350   0.028   2.653
 1574SOL    HW2 4764   3.412   0.157   2.609
 1575SOL     OW 4765   3.263   3.804   2.369
 1575SOL    HW1 4766   3.250   3.782   2.274
 1575SOL    HW2 4767   3.355   3.775   2.383
 1576SOL     OW 4768   2.539   3.828   1.947
 1576SOL    HW1 4769   2.560   3.744   1.990
 1576SOL    HW2 4770   2.472   3.801   1.882
 1577SOL     OW 4771   1.172   2.103   0.177
 1577SOL    HW1 4772   1.149   2.055   0.257
 1577SOL    HW2 4773   1.189   2.193   0.211
 1578SOL     OW 4774   2.450   3.799   2.322
 1578SOL    HW1 4775   2.373   3.802   2.383
 1578SOL    HW2 4776   2.446   3.885   2.277
 1579SOL     OW 4777   2.131   3.772   2.014
 1579SOL    HW1 4778   2.184   3.836   1.964
 1579SOL    HW2 4779   2.200   3.720   2.060
 1580SOL     OW 4780   2.800   3.997   2.317
 1580SOL    HW1 4781   2.771   4.069   2.374
 1580SOL    HW2 4782   2.895   3.989   2.341
 1581SOL     OW 4783   4.127   2.007   0.226
 1581SOL    HW1 4784   4.213   1.975   0.192
 1581SOL    HW2 4785   4.140   2.105   0.225
 1582SOL     OW 4786   0.153   1.703   0.024
 1582SOL    HW1 4787   0.223   1.636   0.026
 1582SOL    HW2 4788   0.083   1.657   0.074
 1583SOL     OW 4789   2.878   3.737   2.557
 1583SOL    HW1 4790   2.824   3.738   2.476
 1583SOL    HW2 4791   2.831   3.669   2.610
 1584SOL     OW 4792   3.308   4.269   2.792
 1584SOL    HW1 4793   3.260   4.190   2.821
 1584SOL    HW2 4794   3.372   4.280   2.865
 1585SOL     OW 4795   2.461   4.014   2.146
 1585SOL    HW1 4796   2.491   3.957   2.073
 1585SOL    HW2 4797   2.510   4.096   2.129
 1586SOL     OW 4798   2.516   0.034   2.867
 1586SOL    HW1 4799   2.467  -0.033   2.815
 1586SOL    HW2 4800   2.477   0.117   2.832
 1587SOL     OW 4801   2.215   3.786   2.469
 1587SOL    HW1 4802   2.192   3.881   2.475
 1587SOL    HW2 4803   2.204   3.757   2.561
 1588SOL     OW 4804   3.428   4.081   2.237
 1588SOL    HW1 4805   3.501   4.017   2.247
 1588SOL    HW2 4806   3.407   4.099   2.330
 1589SOL     OW 4807   3.300   3.968   2.015
 1589SOL    HW1 4808   3.274   3.881   2.050
 1589SOL    HW2 4809   3.340   4.010   2.093
 1590SOL     OW 4810   2.129   4.215   2.913
 1590SOL    HW1 4811   2.100   4.125   2.885
 1590SOL    HW2 4812   2.205   4.224   2.851
 1591SOL     OW 4813   2.849   0.158   3.051
 1591SOL    HW1 4814   2.926   0.146   3.109
 1591SOL    HW2 4815   2.779   0.176   3.118
 1592SOL     OW 4816   6.191   4.201   3.025
 1592SOL    HW1 4817   6.265   4.214   2.964
 1592SOL    HW2 4818   6.236   4.177   3.107
 1593SOL     OW 4819   2.604   4.255   2.109
 1593SOL    HW1 4820   2.682   4.202   2.083
 1593SOL    HW2 4821   2.631   4.290   2.195
 1594SOL     OW 4822   3.466   4.278   3.005
 1594SOL    HW1 4823   3.408   4.274   3.084
 1594SOL    HW2 4824   3.548   4.313   3.045
 1595SOL     OW 4825   3.619   3.900   2.301
 1595SOL    HW1 4826   3.681   3.880   2.228
 1595SOL    HW2 4827   3.589   3.811   2.329
 1596SOL     OW 4828   3.680   3.874   2.879
 1596SOL    HW1 4829   3.706   3.788   2.839
 1596SOL    HW2 4830   3.610   3.904   2.817
 1597SOL     OW 4831   2.161   4.047   2.493
 1597SOL    HW1 4832   2.069   4.067   2.518
 1597SOL    HW2 4833   2.214   4.083   2.567
 1598SOL     OW 4834   2.944   3.932   2.740
 1598SOL    HW1 4835   2.928   3.866   2.671
 1598SOL    HW2 4836   2.857   3.972   2.750
 1599SOL     OW 4837   1.940   4.041   1.845
 1599SOL    HW1 4838   1.853   4.035   1.802
 1599SOL    HW2 4839   1.981   4.114   1.795
 1600SOL     OW 4840   1.894   3.870   2.093
 1600SOL    HW1 4841   1.883   3.931   2.018
 1600SOL    HW2 4842   1.985   3.839   2.077
 1601SOL     OW 4843   3.056   3.984   2.382
 1601SOL    HW1 4844   3.131   3.923   2.376
 1601SOL    HW2 4845   3.086   4.046   2.451
 1602SOL     OW 4846   2.297   4.188   2.288
 1602SOL    HW1 4847   2.345   4.119   2.239
 1602SOL    HW2 4848   2.248   4.136   2.354
 1603SOL     OW 4849   3.235   3.718   2.114
 1603SOL    HW1 4850   3.302   3.647   2.110
 1603SOL    HW2 4851   3.155   3.671   2.081
 1604SOL     OW 4852   3.138   4.149   2.579
 1604SOL    HW1 4853   3.111   4.242   2.589
 1604SOL    HW2 4854   3.133   4.116   2.670
 1605SOL     OW 4855   3.484   3.939   2.708
 1605SOL    HW1 4856   3.411   3.883   2.738
 1605SOL    HW2 4857   3.442   4.001   2.646
 1606SOL     OW 4858   3.938   0.320   0.994
 1606SOL    HW1 4859   3.988   0.281   1.068
 1606SOL    HW2 4860   3.853   0.272   1.001
 1607SOL     OW 4861   3.690   0.429   0.660
 1607SOL    HW1 4862   3.607   0.471   0.689
 1607SOL    HW2 4863   3.655   0.351   0.613
 1608SOL     OW 4864   4.421   0.999   0.704
 1608SOL    HW1 4865   4.489   1.053   0.746
 1608SOL    HW2 4866   4.346   1.061   0.695
 1609SOL     OW 4867   4.035   1.398   1.047
 1609SOL    HW1 4868   3.976   1.320   1.051
 1609SOL    HW2 4869   4.006   1.440   0.966
 1610SOL     OW 4870   4.198   0.457   1.484
 1610SOL    HW1 4871   4.290   0.477   1.457
 1610SOL    HW2 4872   4.206   0.460   1.581
 1611SOL     OW 4873   4.066   1.642   0.467
 1611SOL    HW1 4874   4.075   1.728   0.510
 1611SOL    HW2 4875   4.160   1.615   0.457
 1612SOL     OW 4876   4.003   1.371   0.468
 1612SOL    HW1 4877   4.025   1.465   0.473
 1612SOL    HW2 4878   3.941   1.359   0.540
 1613SOL     OW 4879   4.030   1.090   0.863
 1613SOL    HW1 4880   4.038   1.000   0.898
 1613SOL    HW2 4881   3.971   1.132   0.929
 1614SOL     OW 4882   3.828   0.669   0.607
 1614SOL    HW1 4883   3.778   0.588   0.628
 1614SOL    HW2 4884   3.823   0.717   0.693
 1615SOL     OW 4885   3.868   0.752   1.654
 1615SOL    HW1 4886   3.962   0.777   1.657
 1615SOL    HW2 4887   3.826   0.840   1.663
 1616SOL     OW 4888   3.966   0.972   1.313
 1616SOL    HW1 4889   4.054   0.946   1.344
 1616SOL    HW2 4890   3.968   0.945   1.220
 1617SOL     OW 4891   4.060   0.218   1.737
 1617SOL    HW1 4892   4.118   0.296   1.743
 1617SOL    HW2 4893   4.041   0.203   1.831
 1618SOL     OW 4894   3.821   0.798   0.848
 1618SOL    HW1 4895   3.896   0.811   0.907
 1618SOL    HW2 4896   3.761   0.868   0.877
 1619SOL     OW 4897   3.839   1.941   1.643
 1619SOL    HW1 4898   3.846   1.892   1.727
 1619SOL    HW2 4899   3.759   1.995   1.658
 1620SOL     OW 4900   0.211   0.295   0.225
 1620SOL    HW1 4901   0.275   0.354   0.179
 1620SOL    HW2 4902   0.225   0.212   0.176
 1621SOL     OW 4903   4.047   1.818   0.808
 1621SOL    HW1 4904   4.096   1.737   0.827
 1621SOL    HW2 4905   4.115   1.886   0.827
 1622SOL     OW 4906   4.168   1.229   1.727
 1622SOL    HW1 4907   4.137   1.247   1.636
 1622SOL    HW2 4908   4.107   1.285   1.779
 1623SOL     OW 4909   3.967   0.311   1.478
 1623SOL    HW1 4910   4.046   0.368   1.480
 1623SOL    HW2 4911   3.976   0.263   1.562
 1624SOL     OW 4912   4.032   1.789   1.270
 1624SOL    HW1 4913   4.030   1.789   1.368
 1624SOL    HW2 4914   4.070   1.702   1.252
 1625SOL     OW 4915   4.083   0.729   0.509
 1625SOL    HW1 4916   4.124   0.648   0.543
 1625SOL    HW2 4917   3.993   0.720   0.543
 1626SOL     OW 4918   0.021   0.071   0.006
 1626SOL    HW1 4919   0.114   0.067   0.034
 1626SOL    HW2 4920   0.004   0.167   0.003
 1627SOL     OW 4921   4.198   0.064   0.363
 1627SOL    HW1 4922   4.148   0.060   0.448
 1627SOL    HW2 4923   4.274   0.118   0.389
 1628SOL     OW 4924   4.213   1.172   0.677
 1628SOL    HW1 4925   4.154   1.149   0.752
 1628SOL    HW2 4926   4.156   1.148   0.602
 1629SOL     OW 4927   3.836   0.596   1.428
 1629SOL    HW1 4928   3.915   0.627   1.379
 1629SOL    HW2 4929   3.832   0.660   1.500
 1630SOL     OW 4930   4.309   0.240   1.124
 1630SOL    HW1 4931   4.332   0.147   1.141
 1630SOL    HW2 4932   4.218   0.246   1.158
 1631SOL     OW 4933   4.208   0.854   1.406
 1631SOL    HW1 4934   4.292   0.864   1.359
 1631SOL    HW2 4935   4.168   0.775   1.363
 1632SOL     OW 4936   3.830   1.554   1.341
 1632SOL    HW1 4937   3.817   1.642   1.305
 1632SOL    HW2 4938   3.926   1.543   1.334
 1633SOL     OW 4939   4.030   1.099   0.471
 1633SOL    HW1 4940   4.038   1.189   0.434
 1633SOL    HW2 4941   4.087   1.045   0.413
 1634SOL     OW 4942   4.270   0.619   0.933
 1634SOL    HW1 4943   4.321   0.657   0.859
 1634SOL    HW2 4944   4.331   0.632   1.007
 1635SOL     OW 4945   4.099   1.507   1.289
 1635SOL    HW1 4946   4.090   1.463   1.201
 1635SOL    HW2 4947   4.195   1.504   1.304
 1636SOL     OW 4948   4.132   0.816   1.665
 1636SOL    HW1 4949   4.160   0.841   1.574
 1636SOL    HW2 4950   4.212   0.775   1.700
 1637SOL     OW 4951   4.200   4.316   1.695
 1637SOL    HW1 4952   4.152   4.260   1.630
 1637SOL    HW2 4953   4.149   4.399   1.692
 1638SOL     OW 4954   4.267   0.947   1.091
 1638SOL    HW1 4955   4.297   1.028   1.048
 1638SOL    HW2 4956   4.342   0.928   1.151
 1639SOL     OW 4957   4.048   0.225   1.227
 1639SOL    HW1 4958   4.024   0.264   1.313
 1639SOL    HW2 4959   4.047   0.130   1.250
 1640SOL     OW 4960   3.759   1.304   1.253
 1640SOL    HW1 4961   3.781   1.250   1.331
 1640SOL    HW2 4962   3.778   1.395   1.283
 1641SOL     OW 4963   4.056   0.089   0.588
 1641SOL    HW1 4964   4.014   0.162   0.635
 1641SOL    HW2 4965   3.988   0.020   0.587
 1642SOL     OW 4966   4.050   1.012   1.843
 1642SOL    HW1 4967   4.102   1.087   1.808
 1642SOL    HW2 4968   4.084   0.938   1.789
 1643SOL     OW 4969   4.027   0.850   1.026
 1643SOL    HW1 4970   4.117   0.880   1.048
 1643SOL    HW2 4971   4.033   0.754   1.039
 1644SOL     OW 4972   4.040   0.568   1.051
 1644SOL    HW1 4973   4.006   0.484   1.017
 1644SOL    HW2 4974   4.122   0.579   0.998
 1645SOL     OW 4975   3.800   1.802   0.940
 1645SOL    HW1 4976   3.768   1.722   0.895
 1645SOL    HW2 4977   3.889   1.812   0.902
 1646SOL     OW 4978   3.703   0.444   1.169
 1646SOL    HW1 4979   3.693   0.365   1.112
 1646SOL    HW2 4980   3.764   0.499   1.118
 1647SOL     OW 4981   3.937   0.505   1.755
 1647SOL    HW1 4982   4.033   0.496   1.748
 1647SOL    HW2 4983   3.921   0.592   1.713
 1648SOL     OW 4984   4.391   0.519   0.282
 1648SOL    HW1 4985   4.445   0.438   0.272
 1648SOL    HW2 4986   4.427   0.558   0.364
 1649SOL     OW 4987   3.920   1.564   1.696
 1649SOL    HW1 4988   3.908   1.638   1.759
 1649SOL    HW2 4989   3.954   1.494   1.754
 1650SOL     OW 4990   4.126   0.456   0.309
 1650SOL    HW1 4991   4.219   0.482   0.293
 1650SOL    HW2 4992   4.077   0.523   0.258
 1651SOL     OW 4993   3.827   1.143   1.467
 1651SOL    HW1 4994   3.823   1.096   1.553
 1651SOL    HW2 4995   3.871   1.076   1.410
 1652SOL     OW 4996   3.846   1.195   1.025
 1652SOL    HW1 4997   3.805   1.231   1.107
 1652SOL    HW2 4998   3.778   1.132   0.995
 1653SOL     OW 4999   3.887   1.783   1.858
 1653SOL    HW1 5000   3.848   1.715   1.917
 1653SOL    HW2 5001   3.934   1.840   1.923
 1654SOL     OW 5002   3.929   0.309   0.715
 1654SOL    HW1 5003   3.851   0.367   0.698
 1654SOL    HW2 5004   3.947   0.327   0.810
 1655SOL     OW 5005   4.066   1.297   1.490
 1655SOL    HW1 5006   4.068   1.367   1.424
 1655SOL    HW2 5007   3.981   1.253   1.473
 1656SOL     OW 5008   4.323   1.560   0.454
 1656SOL    HW1 5009   4.355   1.479   0.498
 1656SOL    HW2 5010   4.400   1.620   0.464
 1657SOL     OW 5011   3.811   1.016   1.709
 1657SOL    HW1 5012   3.735   1.018   1.771
 1657SOL    HW2 5013   3.886   1.027   1.770
 1658SOL     OW 5014   4.013   1.768   1.536
 1658SOL    HW1 5015   3.942   1.826   1.570
 1658SOL    HW2 5016   3.994   1.685   1.583
 1659SOL     OW 5017   0.295   1.463   0.009
 1659SOL    HW1 5018   0.226   1.400   0.034
 1659SOL    HW2 5019   0.309   1.444  -0.086
 1660SOL     OW 5020   3.995   1.370   1.875
 1660SOL    HW1 5021   3.910   1.337   1.910
 1660SOL    HW2 5022   4.041   1.394   1.956
 1661SOL     OW 5023   3.860   1.204   0.663
 1661SOL    HW1 5024   3.905   1.168   0.742
 1661SOL    HW2 5025   3.906   1.156   0.592
 1662SOL     OW 5026   4.418   1.330   1.713
 1662SOL    HW1 5027   4.330   1.293   1.734
 1662SOL    HW2 5028   4.407   1.356   1.622
 1663SOL     OW 5029   4.127   0.456   0.580
 1663SOL    HW1 5030   4.116   0.448   0.483
 1663SOL    HW2 5031   4.053   0.404   0.614
 1664SOL     OW 5032   4.081   0.636   1.309
 1664SOL    HW1 5033   4.123   0.560   1.353
 1664SOL    HW2 5034   4.071   0.605   1.216
 1665SOL     OW 5035   3.789   1.004   0.362
 1665SOL    HW1 5036   3.871   1.028   0.408
 1665SOL    HW2 5037   3.796   0.906   0.356
 1666SOL     OW 5038   3.929   0.546   2.029
 1666SOL    HW1 5039   3.838   0.568   2.056
 1666SOL    HW2 5040   3.917   0.522   1.936
 1667SOL     OW 5041   3.905   0.333   2.873
 1667SOL    HW1 5042   3.960   0.268   2.921
 1667SOL    HW2 5043   3.814   0.305   2.896
 1668SOL     OW 5044   3.704   0.427   2.496
 1668SOL    HW1 5045   3.613   0.451   2.519
 1668SOL    HW2 5046   3.690   0.361   2.424
 1669SOL     OW 5047   4.415   1.086   2.471
 1669SOL    HW1 5048   4.489   1.065   2.531
 1669SOL    HW2 5049   4.339   1.088   2.530
 1670SOL     OW 5050   4.031   1.432   2.961
 1670SOL    HW1 5051   4.054   1.356   3.019
 1670SOL    HW2 5052   4.031   1.390   2.875
 1671SOL     OW 5053   3.926   1.784   2.299
 1671SOL    HW1 5054   3.953   1.833   2.379
 1671SOL    HW2 5055   3.968   1.837   2.228
 1672SOL     OW 5056   3.931   1.512   2.318
 1672SOL    HW1 5057   3.936   1.609   2.306
 1672SOL    HW2 5058   3.888   1.504   2.403
 1673SOL     OW 5059   3.978   1.106   2.756
 1673SOL    HW1 5060   3.995   1.017   2.793
 1673SOL    HW2 5061   3.883   1.100   2.735
 1674SOL     OW 5062   3.838   0.658   2.420
 1674SOL    HW1 5063   3.798   0.575   2.452
 1674SOL    HW2 5064   3.838   0.713   2.502
 1675SOL     OW 5065   3.787   1.579   2.002
 1675SOL    HW1 5066   3.773   1.489   2.034
 1675SOL    HW2 5067   3.744   1.633   2.070
 1676SOL     OW 5068   4.204   0.819   2.150
 1676SOL    HW1 5069   4.273   0.882   2.179
 1676SOL    HW2 5070   4.184   0.769   2.232
 1677SOL     OW 5071   3.831   0.816   2.636
 1677SOL    HW1 5072   3.904   0.818   2.700
 1677SOL    HW2 5073   3.788   0.901   2.651
 1678SOL     OW 5074   4.667   0.304   1.881
 1678SOL    HW1 5075   4.709   0.366   1.944
 1678SOL    HW2 5076   4.665   0.222   1.934
 1679SOL     OW 5077   4.067   1.825   2.800
 1679SOL    HW1 5078   4.112   1.740   2.795
 1679SOL    HW2 5079   4.142   1.887   2.801
 1680SOL     OW 5080   3.999   0.995   2.112
 1680SOL    HW1 5081   4.013   1.009   2.017
 1680SOL    HW2 5082   4.067   0.927   2.130
 1681SOL     OW 5083   4.110   0.667   2.355
 1681SOL    HW1 5084   4.129   0.575   2.379
 1681SOL    HW2 5085   4.014   0.672   2.369
 1682SOL     OW 5086   4.299   0.039   1.948
 1682SOL    HW1 5087   4.354  -0.040   1.961
 1682SOL    HW2 5088   4.271   0.027   1.856
 1683SOL     OW 5089   4.136   0.184   2.270
 1683SOL    HW1 5090   4.122   0.094   2.302
 1683SOL    HW2 5091   4.229   0.186   2.242
 1684SOL     OW 5092   4.056   0.160   2.005
 1684SOL    HW1 5093   4.138   0.110   1.992
 1684SOL    HW2 5094   4.068   0.191   2.097
 1685SOL     OW 5095   4.186   1.198   2.611
 1685SOL    HW1 5096   4.114   1.167   2.670
 1685SOL    HW2 5097   4.138   1.199   2.526
 1686SOL     OW 5098   2.106   3.014   0.051
 1686SOL    HW1 5099   2.042   3.068   0.100
 1686SOL    HW2 5100   2.071   2.924   0.066
 1687SOL     OW 5101   1.628   3.680   0.014
 1687SOL    HW1 5102   1.647   3.768   0.049
 1687SOL    HW2 5103   1.710   3.657  -0.033
 1688SOL     OW 5104   4.024   1.178   2.388
 1688SOL    HW1 5105   4.037   1.233   2.309
 1688SOL    HW2 5106   4.012   1.091   2.348
 1689SOL     OW 5107   4.267   0.552   2.775
 1689SOL    HW1 5108   4.314   0.628   2.735
 1689SOL    HW2 5109   4.313   0.545   2.862
 1690SOL     OW 5110   1.937   3.742   0.126
 1690SOL    HW1 5111   1.918   3.707   0.037
 1690SOL    HW2 5112   2.034   3.736   0.130
 1691SOL     OW 5113   4.293   0.902   2.848
 1691SOL    HW1 5114   4.323   0.995   2.845
 1691SOL    HW2 5115   4.294   0.884   2.944
 1692SOL     OW 5116   4.109   0.099   2.605
 1692SOL    HW1 5117   4.050   0.176   2.600
 1692SOL    HW2 5118   4.080   0.047   2.527
 1693SOL     OW 5119   4.028   0.841   2.823
 1693SOL    HW1 5120   4.124   0.858   2.826
 1693SOL    HW2 5121   4.021   0.752   2.862
 1694SOL     OW 5122   4.024   0.574   2.902
 1694SOL    HW1 5123   3.977   0.490   2.887
 1694SOL    HW2 5124   4.105   0.561   2.849
 1695SOL     OW 5125   3.780   1.285   2.032
 1695SOL    HW1 5126   3.692   1.311   1.997
 1695SOL    HW2 5127   3.759   1.199   2.073
 1696SOL     OW 5128   3.788   1.777   2.832
 1696SOL    HW1 5129   3.764   1.699   2.779
 1696SOL    HW2 5130   3.883   1.786   2.813
 1697SOL     OW 5131   3.754   0.595   3.053
 1697SOL    HW1 5132   3.840   0.603   3.010
 1697SOL    HW2 5133   3.775   0.612   3.147
 1698SOL     OW 5134   4.514   0.485   2.179
 1698SOL    HW1 5135   4.459   0.405   2.177
 1698SOL    HW2 5136   4.491   0.525   2.265
 1699SOL     OW 5137   4.182   0.620   1.968
 1699SOL    HW1 5138   4.200   0.696   2.027
 1699SOL    HW2 5139   4.096   0.591   2.004
 1700SOL     OW 5140   3.928   0.308   2.604
 1700SOL    HW1 5141   3.848   0.352   2.567
 1700SOL    HW2 5142   3.923   0.337   2.698
 1701SOL     OW 5143   4.378   1.566   2.290
 1701SOL    HW1 5144   4.389   1.499   2.359
 1701SOL    HW2 5145   4.448   1.631   2.311
 1702SOL     OW 5146   4.034   1.326   2.157
 1702SOL    HW1 5147   3.949   1.300   2.119
 1702SOL    HW2 5148   4.008   1.404   2.211
 1703SOL     OW 5149   2.185   2.359   0.223
 1703SOL    HW1 5150   2.117   2.422   0.193
 1703SOL    HW2 5151   2.177   2.364   0.320
 1704SOL     OW 5152   3.741   0.336   1.839
 1704SOL    HW1 5153   3.676   0.406   1.823
 1704SOL    HW2 5154   3.821   0.377   1.801
 1705SOL     OW 5155   3.782   0.187   2.060
 1705SOL    HW1 5156   3.759   0.242   1.983
 1705SOL    HW2 5157   3.876   0.170   2.044
 1706SOL     OW 5158   3.818   1.311   2.543
 1706SOL    HW1 5159   3.790   1.231   2.592
 1706SOL    HW2 5160   3.893   1.276   2.492
 1707SOL     OW 5161   4.130   0.400   2.435
 1707SOL    HW1 5162   4.125   0.332   2.365
 1707SOL    HW2 5163   4.053   0.377   2.490
 1708SOL     OW 5164   1.975   2.781   0.084
 1708SOL    HW1 5165   1.998   2.691   0.115
 1708SOL    HW2 5166   1.933   2.762  -0.001
 1709SOL     OW 5167   3.744   1.045   2.175
 1709SOL    HW1 5168   3.839   1.031   2.154
 1709SOL    HW2 5169   3.715   0.953   2.189
 1710SOL     OW 5170   3.950   2.185   0.968
 1710SOL    HW1 5171   3.991   2.146   1.047
 1710SOL    HW2 5172   3.861   2.145   0.972
 1711SOL     OW 5173   3.704   2.309   0.628
 1711SOL    HW1 5174   3.616   2.303   0.668
 1711SOL    HW2 5175   3.695   2.256   0.548
 1712SOL     OW 5176   4.431   2.843   0.656
 1712SOL    HW1 5177   4.499   2.870   0.720
 1712SOL    HW2 5178   4.355   2.898   0.683
 1713SOL     OW 5179   4.049   3.280   1.040
 1713SOL    HW1 5180   3.967   3.227   1.039
 1713SOL    HW2 5181   4.080   3.269   0.949
 1714SOL     OW 5182   4.127   2.292   1.590
 1714SOL    HW1 5183   4.151   2.239   1.668
 1714SOL    HW2 5184   4.071   2.229   1.541
 1715SOL     OW 5185   4.010   3.549   0.472
 1715SOL    HW1 5186   4.037   3.616   0.537
 1715SOL    HW2 5187   4.097   3.511   0.448
 1716SOL     OW 5188   3.911   3.291   0.429
 1716SOL    HW1 5189   3.940   3.383   0.442
 1716SOL    HW2 5190   3.895   3.261   0.519
 1717SOL     OW 5191   4.006   3.002   0.853
 1717SOL    HW1 5192   4.001   2.907   0.872
 1717SOL    HW2 5193   3.948   3.039   0.922
 1718SOL     OW 5194   3.819   2.568   0.570
 1718SOL    HW1 5195   3.785   2.481   0.597
 1718SOL    HW2 5196   3.798   2.624   0.647
 1719SOL     OW 5197   3.926   2.603   1.565
 1719SOL    HW1 5198   4.023   2.602   1.579
 1719SOL    HW2 5199   3.904   2.695   1.587
 1720SOL     OW 5200   3.972   2.822   1.271
 1720SOL    HW1 5201   4.058   2.775   1.282
 1720SOL    HW2 5202   3.938   2.784   1.190
 1721SOL     OW 5203   4.128   2.152   1.831
 1721SOL    HW1 5204   4.145   2.234   1.881
 1721SOL    HW2 5205   4.091   2.095   1.901
 1722SOL     OW 5206   3.761   2.757   0.767
 1722SOL    HW1 5207   3.844   2.745   0.818
 1722SOL    HW2 5208   3.720   2.830   0.817
 1723SOL     OW 5209   3.841   3.748   1.633
 1723SOL    HW1 5210   3.857   3.734   1.729
 1723SOL    HW2 5211   3.787   3.669   1.613
 1724SOL     OW 5212   0.238   2.188   0.058
 1724SOL    HW1 5213   0.285   2.194  -0.027
 1724SOL    HW2 5214   0.277   2.107   0.097
 1725SOL     OW 5215   4.259   1.976   0.868
 1725SOL    HW1 5216   4.265   2.014   0.958
 1725SOL    HW2 5217   4.281   2.053   0.813
 1726SOL     OW 5218   4.164   3.717   0.907
 1726SOL    HW1 5219   4.245   3.671   0.935
 1726SOL    HW2 5220   4.191   3.810   0.918
 1727SOL     OW 5221   4.200   3.059   1.701
 1727SOL    HW1 5222   4.163   3.095   1.618
 1727SOL    HW2 5223   4.138   3.097   1.766
 1728SOL     OW 5224   3.948   2.124   1.468
 1728SOL    HW1 5225   3.862   2.170   1.457
 1728SOL    HW2 5226   3.922   2.052   1.529
 1729SOL     OW 5227   4.026   3.643   1.211
 1729SOL    HW1 5228   4.064   3.558   1.236
 1729SOL    HW2 5229   3.989   3.625   1.123
 1730SOL     OW 5230   4.062   2.636   0.448
 1730SOL    HW1 5231   4.105   2.549   0.461
 1730SOL    HW2 5232   3.978   2.620   0.495
 1731SOL     OW 5233   4.356   1.938   0.096
 1731SOL    HW1 5234   4.406   1.857   0.074
 1731SOL    HW2 5235   4.349   1.980   0.009
 1732SOL     OW 5236   4.245   2.086   0.483
 1732SOL    HW1 5237   4.186   2.038   0.424
 1732SOL    HW2 5238   4.331   2.075   0.437
 1733SOL     OW 5239   4.232   3.023   0.702
 1733SOL    HW1 5240   4.155   3.021   0.762
 1733SOL    HW2 5241   4.190   2.991   0.619
 1734SOL     OW 5242   3.863   2.452   1.343
 1734SOL    HW1 5243   3.958   2.432   1.328
 1734SOL    HW2 5244   3.870   2.511   1.420
 1735SOL     OW 5245   4.292   2.056   1.127
 1735SOL    HW1 5246   4.324   1.991   1.190
 1735SOL    HW2 5247   4.200   2.070   1.157
 1736SOL     OW 5248   4.206   2.674   1.281
 1736SOL    HW1 5249   4.284   2.674   1.338
 1736SOL    HW2 5250   4.174   2.582   1.293
 1737SOL     OW 5251   3.837   3.429   1.347
 1737SOL    HW1 5252   3.810   3.512   1.303
 1737SOL    HW2 5253   3.933   3.427   1.333
 1738SOL     OW 5254   4.110   2.914   0.489
 1738SOL    HW1 5255   4.065   2.954   0.413
 1738SOL    HW2 5256   4.096   2.819   0.476
 1739SOL     OW 5257   4.239   2.442   0.861
 1739SOL    HW1 5258   4.301   2.499   0.812
 1739SOL    HW2 5259   4.284   2.437   0.948
 1740SOL     OW 5260   4.104   3.388   1.281
 1740SOL    HW1 5261   4.094   3.342   1.194
 1740SOL    HW2 5262   4.200   3.385   1.295
 1741SOL     OW 5263   4.192   2.576   1.620
 1741SOL    HW1 5264   4.284   2.598   1.603
 1741SOL    HW2 5265   4.193   2.479   1.624
 1742SOL     OW 5266   4.204   1.959   1.634
 1742SOL    HW1 5267   4.133   1.898   1.609
 1742SOL    HW2 5268   4.166   2.012   1.705
 1743SOL     OW 5269   4.221   2.776   1.027
 1743SOL    HW1 5270   4.286   2.849   1.029
 1743SOL    HW2 5271   4.225   2.740   1.117
 1744SOL     OW 5272   4.033   2.057   1.209
 1744SOL    HW1 5273   4.005   2.088   1.297
 1744SOL    HW2 5274   4.025   1.960   1.220
 1745SOL     OW 5275   3.741   3.190   1.267
 1745SOL    HW1 5276   3.781   3.127   1.330
 1745SOL    HW2 5277   3.771   3.275   1.303
 1746SOL     OW 5278   3.915   1.912   0.583
 1746SOL    HW1 5279   3.926   2.007   0.604
 1746SOL    HW2 5280   3.955   1.873   0.663
 1747SOL     OW 5281   4.123   2.818   1.816
 1747SOL    HW1 5282   4.175   2.893   1.781
 1747SOL    HW2 5283   4.175   2.741   1.789
 1748SOL     OW 5284   3.983   2.730   0.922
 1748SOL    HW1 5285   4.074   2.745   0.955
 1748SOL    HW2 5286   3.976   2.633   0.930
 1749SOL     OW 5287   3.980   2.457   0.950
 1749SOL    HW1 5288   3.963   2.361   0.957
 1749SOL    HW2 5289   4.071   2.456   0.915
 1750SOL     OW 5290   3.883   3.616   0.965
 1750SOL    HW1 5291   3.847   3.543   0.911
 1750SOL    HW2 5292   3.966   3.638   0.919
 1751SOL     OW 5293   3.749   2.522   1.107
 1751SOL    HW1 5294   3.821   2.503   1.045
 1751SOL    HW2 5295   3.789   2.499   1.193
 1752SOL     OW 5296   3.901   2.398   1.749
 1752SOL    HW1 5297   3.982   2.355   1.718
 1752SOL    HW2 5298   3.890   2.468   1.682
 1753SOL     OW 5299   0.254   2.391   0.258
 1753SOL    HW1 5300   0.222   2.308   0.218
 1753SOL    HW2 5301   0.210   2.392   0.346
 1754SOL     OW 5302   3.957   3.402   1.734
 1754SOL    HW1 5303   3.915   3.415   1.821
 1754SOL    HW2 5304   3.998   3.315   1.747
 1755SOL     OW 5305   4.138   2.278   0.204
 1755SOL    HW1 5306   4.210   2.293   0.139
 1755SOL    HW2 5307   4.061   2.313   0.155
 1756SOL     OW 5308   3.888   3.017   1.435
 1756SOL    HW1 5309   3.884   2.966   1.518
 1756SOL    HW2 5310   3.918   2.948   1.372
 1757SOL     OW 5311   3.825   3.117   1.019
 1757SOL    HW1 5312   3.789   3.140   1.107
 1757SOL    HW2 5313   3.752   3.064   0.981
 1758SOL     OW 5314   3.908   3.680   1.882
 1758SOL    HW1 5315   3.890   3.591   1.916
 1758SOL    HW2 5316   3.968   3.716   1.950
 1759SOL     OW 5317   3.943   2.172   0.678
 1759SOL    HW1 5318   3.865   2.230   0.669
 1759SOL    HW2 5319   3.961   2.179   0.773
 1760SOL     OW 5320   4.096   3.188   1.489
 1760SOL    HW1 5321   4.088   3.262   1.427
 1760SOL    HW2 5322   4.019   3.133   1.465
 1761SOL     OW 5323   4.257   3.445   0.434
 1761SOL    HW1 5324   4.273   3.352   0.411
 1761SOL    HW2 5325   4.347   3.481   0.444
 1762SOL     OW 5326   3.895   2.863   1.672
 1762SOL    HW1 5327   3.835   2.886   1.744
 1762SOL    HW2 5328   3.979   2.849   1.721
 1763SOL     OW 5329   4.093   3.626   1.628
 1763SOL    HW1 5330   4.008   3.671   1.612
 1763SOL    HW2 5331   4.063   3.541   1.664
 1764SOL     OW 5332   4.027   3.168   1.875
 1764SOL    HW1 5333   3.940   3.146   1.912
 1764SOL    HW2 5334   4.077   3.188   1.956
 1765SOL     OW 5335   3.854   3.137   0.662
 1765SOL    HW1 5336   3.915   3.092   0.722
 1765SOL    HW2 5337   3.837   3.067   0.595
 1766SOL     OW 5338   4.391   3.246   1.645
 1766SOL    HW1 5339   4.334   3.173   1.676
 1766SOL    HW2 5340   4.347   3.270   1.563
 1767SOL     OW 5341   4.133   2.370   0.472
 1767SOL    HW1 5342   4.143   2.332   0.383
 1767SOL    HW2 5343   4.092   2.298   0.522
 1768SOL     OW 5344   4.134   2.410   1.329
 1768SOL    HW1 5345   4.150   2.371   1.416
 1768SOL    HW2 5346   4.200   2.366   1.274
 1769SOL     OW 5347   3.792   2.957   0.469
 1769SOL    HW1 5348   3.852   2.991   0.401
 1769SOL    HW2 5349   3.770   2.869   0.433
 1770SOL     OW 5350   3.915   2.527   1.992
 1770SOL    HW1 5351   3.834   2.497   2.037
 1770SOL    HW2 5352   3.903   2.489   1.903
 1771SOL     OW 5353   3.944   2.184   2.865
 1771SOL    HW1 5354   3.978   2.135   2.941
 1771SOL    HW2 5355   3.855   2.143   2.856
 1772SOL     OW 5356   3.687   2.280   2.506
 1772SOL    HW1 5357   3.599   2.292   2.546
 1772SOL    HW2 5358   3.665   2.213   2.438
 1773SOL     OW 5359   4.446   2.855   2.489
 1773SOL    HW1 5360   4.504   2.894   2.556
 1773SOL    HW2 5361   4.365   2.909   2.497
 1774SOL     OW 5362   3.947   3.122   2.898
 1774SOL    HW1 5363   3.855   3.150   2.882
 1774SOL    HW2 5364   3.965   3.161   2.984
 1775SOL     OW 5365   3.878   3.605   2.349
 1775SOL    HW1 5366   3.898   3.671   2.417
 1775SOL    HW2 5367   3.967   3.582   2.318
 1776SOL     OW 5368   3.952   3.321   2.365
 1776SOL    HW1 5369   3.898   3.394   2.398
 1776SOL    HW2 5370   3.927   3.248   2.424
 1777SOL     OW 5371   4.047   2.976   2.696
 1777SOL    HW1 5372   4.037   2.884   2.726
 1777SOL    HW2 5373   4.015   3.027   2.774
 1778SOL     OW 5374   3.815   2.510   2.417
 1778SOL    HW1 5375   3.772   2.427   2.444
 1778SOL    HW2 5376   3.805   2.565   2.497
 1779SOL     OW 5377   3.837   3.427   1.981
 1779SOL    HW1 5378   3.822   3.336   2.010
 1779SOL    HW2 5379   3.777   3.478   2.038
 1780SOL     OW 5380   4.256   2.590   2.120
 1780SOL    HW1 5381   4.294   2.673   2.148
 1780SOL    HW2 5382   4.193   2.570   2.193
 1781SOL     OW 5383   3.784   2.663   2.643
 1781SOL    HW1 5384   3.873   2.693   2.669
 1781SOL    HW2 5385   3.753   2.620   2.723
 1782SOL     OW 5386   4.609   2.079   2.138
 1782SOL    HW1 5387   4.706   2.084   2.140
 1782SOL    HW2 5388   4.595   2.003   2.078
 1783SOL     OW 5389   4.300   1.987   2.768
 1783SOL    HW1 5390   4.265   2.077   2.758
 1783SOL    HW2 5391   4.302   1.958   2.673
 1784SOL     OW 5392   4.039   3.760   2.814
 1784SOL    HW1 5393   4.063   3.739   2.906
 1784SOL    HW2 5394   4.120   3.806   2.783
 1785SOL     OW 5395   3.997   2.790   2.066
 1785SOL    HW1 5396   4.051   2.804   1.986
 1785SOL    HW2 5397   3.978   2.694   2.059
 1786SOL     OW 5398   4.078   2.517   2.315
 1786SOL    HW1 5399   4.094   2.423   2.335
 1786SOL    HW2 5400   3.985   2.527   2.343
 1787SOL     OW 5401   4.312   1.902   2.063
 1787SOL    HW1 5402   4.321   1.850   1.983
 1787SOL    HW2 5403   4.216   1.923   2.063
 1788SOL     OW 5404   4.281   1.912   2.517
 1788SOL    HW1 5405   4.190   1.902   2.486
 1788SOL    HW2 5406   4.329   1.934   2.435
 1789SOL     OW 5407   4.233   3.015   2.500
 1789SOL    HW1 5408   4.171   3.010   2.575
 1789SOL    HW2 5409   4.174   2.990   2.426
 1790SOL     OW 5410   4.050   2.951   2.304
 1790SOL    HW1 5411   4.059   3.025   2.242
 1790SOL    HW2 5412   4.040   2.876   2.243
 1791SOL     OW 5413   4.236   2.524   2.749
 1791SOL    HW1 5414   4.307   2.543   2.684
 1791SOL    HW2 5415   4.288   2.497   2.827
 1792SOL     OW 5416   3.999   1.915   2.528
 1792SOL    HW1 5417   3.968   2.007   2.539
 1792SOL    HW2 5418   4.003   1.884   2.619
 1793SOL     OW 5419   4.027   2.707   2.764
 1793SOL    HW1 5420   4.108   2.663   2.733
 1793SOL    HW2 5421   4.001   2.647   2.835
 1794SOL     OW 5422   4.008   2.452   2.885
 1794SOL    HW1 5423   3.978   2.359   2.879
 1794SOL    HW2 5424   4.084   2.454   2.824
 1795SOL     OW 5425   3.808   3.140   2.045
 1795SOL    HW1 5426   3.717   3.165   2.016
 1795SOL    HW2 5427   3.788   3.053   2.086
 1796SOL     OW 5428   3.776   3.638   2.785
 1796SOL    HW1 5429   3.773   3.553   2.736
 1796SOL    HW2 5430   3.872   3.654   2.792
 1797SOL     OW 5431   4.568   2.357   2.125
 1797SOL    HW1 5432   4.558   2.261   2.132
 1797SOL    HW2 5433   4.532   2.389   2.210
 1798SOL     OW 5434   4.162   2.394   1.953
 1798SOL    HW1 5435   4.220   2.452   2.006
 1798SOL    HW2 5436   4.076   2.433   1.975
 1799SOL     OW 5437   3.684   3.199   2.865
 1799SOL    HW1 5438   3.638   3.232   2.943
 1799SOL    HW2 5439   3.627   3.125   2.836
 1800SOL     OW 5440   3.928   2.173   2.582
 1800SOL    HW1 5441   3.841   2.212   2.562
 1800SOL    HW2 5442   3.935   2.187   2.678
 1801SOL     OW 5443   4.315   3.522   2.210
 1801SOL    HW1 5444   4.400   3.539   2.254
 1801SOL    HW2 5445   4.254   3.580   2.257
 1802SOL     OW 5446   4.057   3.183   2.157
 1802SOL    HW1 5447   3.966   3.172   2.124
 1802SOL    HW2 5448   4.041   3.246   2.231
 1803SOL     OW 5449   2.168   4.287   0.257
 1803SOL    HW1 5450   2.203   4.374   0.229
 1803SOL    HW2 5451   2.160   4.297   0.353
 1804SOL     OW 5452   3.734   2.228   1.888
 1804SOL    HW1 5453   3.694   2.182   1.811
 1804SOL    HW2 5454   3.801   2.282   1.844
 1805SOL     OW 5455   3.723   2.037   2.093
 1805SOL    HW1 5456   3.715   2.104   2.022
 1805SOL    HW2 5457   3.819   2.021   2.090
 1806SOL     OW 5458   3.890   3.084   2.494
 1806SOL    HW1 5459   3.936   3.052   2.573
 1806SOL    HW2 5460   3.930   3.027   2.425
 1807SOL     OW 5461   4.095   2.245   2.375
 1807SOL    HW1 5462   4.067   2.190   2.300
 1807SOL    HW2 5463   4.033   2.219   2.445
 1808SOL     OW 5464   3.757   2.890   2.144
 1808SOL    HW1 5465   3.846   2.862   2.115
 1808SOL    HW2 5466   3.721   2.802   2.169
 1809SOL     OW 5467   3.953   3.974   0.994
 1809SOL    HW1 5468   3.983   3.940   1.081
 1809SOL    HW2 5469   3.866   3.930   0.984
 1810SOL     OW 5470   3.700   4.033   0.672
 1810SOL    HW1 5471   3.618   4.062   0.715
 1810SOL    HW2 5472   3.664   3.978   0.600
 1811SOL     OW 5473   4.116   4.125   1.512
 1811SOL    HW1 5474   4.186   4.061   1.525
 1811SOL    HW2 5475   4.036   4.068   1.510
 1812SOL     OW 5476   3.836   4.248   0.586
 1812SOL    HW1 5477   3.793   4.166   0.615
 1812SOL    HW2 5478   3.798   4.312   0.649
 1813SOL     OW 5479   4.036   3.999   1.784
 1813SOL    HW1 5480   4.009   4.088   1.755
 1813SOL    HW2 5481   3.954   3.967   1.824
 1814SOL     OW 5482   3.744   0.109   0.759
 1814SOL    HW1 5483   3.814   0.175   0.742
 1814SOL    HW2 5484   3.675   0.139   0.696
 1815SOL     OW 5485   0.270   4.009   0.172
 1815SOL    HW1 5486   0.262   4.084   0.234
 1815SOL    HW2 5487   0.178   4.002   0.140
 1816SOL     OW 5488   4.278   3.969   0.944
 1816SOL    HW1 5489   4.273   3.973   1.042
 1816SOL    HW2 5490   4.254   4.060   0.920
 1817SOL     OW 5491   3.898   3.965   1.492
 1817SOL    HW1 5492   3.809   4.004   1.494
 1817SOL    HW2 5493   3.884   3.884   1.546
 1818SOL     OW 5494   4.346   3.791   0.545
 1818SOL    HW1 5495   4.258   3.766   0.580
 1818SOL    HW2 5496   4.325   3.809   0.451
 1819SOL     OW 5497   3.809   4.317   1.471
 1819SOL    HW1 5498   3.890   4.312   1.417
 1819SOL    HW2 5499   3.757   4.382   1.421
 1820SOL     OW 5500   4.278   3.958   1.211
 1820SOL    HW1 5501   4.320   3.885   1.257
 1820SOL    HW2 5502   4.184   3.945   1.232
 1821SOL     OW 5503   4.247   4.248   0.940
 1821SOL    HW1 5504   4.279   4.312   0.875
 1821SOL    HW2 5505   4.303   4.268   1.017
 1822SOL     OW 5506   4.237   3.827   1.740
 1822SOL    HW1 5507   4.191   3.750   1.701
 1822SOL    HW2 5508   4.163   3.890   1.752
 1823SOL     OW 5509   4.018   3.905   1.252
 1823SOL    HW1 5510   3.968   3.922   1.334
 1823SOL    HW2 5511   4.017   3.807   1.247
 1824SOL     OW 5512   4.095   3.738   0.647
 1824SOL    HW1 5513   4.043   3.820   0.658
 1824SOL    HW2 5514   4.121   3.720   0.739
 1825SOL     OW 5515   4.007   4.223   1.065
 1825SOL    HW1 5516   3.988   4.135   1.029
 1825SOL    HW2 5517   4.087   4.247   1.014
 1826SOL     OW 5518   3.756   4.189   1.185
 1826SOL    HW1 5519   3.838   4.214   1.139
 1826SOL    HW2 5520   3.763   4.093   1.189
 1827SOL     OW 5521   3.885   4.245   1.730
 1827SOL    HW1 5522   3.850   4.260   1.641
 1827SOL    HW2 5523   3.913   4.334   1.756
 1828SOL     OW 5524   0.259   4.228   0.339
 1828SOL    HW1 5525   0.335   4.199   0.394
 1828SOL    HW2 5526   0.195   4.250   0.408
 1829SOL     OW 5527   4.198   4.233   0.146
 1829SOL    HW1 5528   4.249   4.296   0.092
 1829SOL    HW2 5529   4.195   4.279   0.232
 1830SOL     OW 5530   3.959   3.963   0.717
 1830SOL    HW1 5531   3.864   3.985   0.706
 1830SOL    HW2 5532   3.971   3.975   0.813
 1831SOL     OW 5533   3.694   4.111   0.065
 1831SOL    HW1 5534   3.692   4.046  -0.007
 1831SOL    HW2 5535   3.787   4.141   0.065
 1832SOL     OW 5536   4.108   4.073   0.513
 1832SOL    HW1 5537   4.045   4.082   0.442
 1832SOL    HW2 5538   4.053   4.042   0.587
 1833SOL     OW 5539   4.037   4.305   1.321
 1833SOL    HW1 5540   4.082   4.238   1.378
 1833SOL    HW2 5541   4.035   4.261   1.234
 1834SOL     OW 5542   3.906   4.004   2.823
 1834SOL    HW1 5543   3.958   3.922   2.829
 1834SOL    HW2 5544   3.817   3.971   2.849
 1835SOL     OW 5545   3.677   4.087   2.481
 1835SOL    HW1 5546   3.587   4.094   2.518
 1835SOL    HW2 5547   3.664   4.016   2.415
 1836SOL     OW 5548   3.750   0.013   2.436
 1836SOL    HW1 5549   3.717  -0.079   2.439
 1836SOL    HW2 5550   3.753   0.035   2.531
 1837SOL     OW 5551   3.796   0.073   2.698
 1837SOL    HW1 5552   3.852   0.021   2.758
 1837SOL    HW2 5553   3.853   0.147   2.673
 1838SOL     OW 5554   4.699   4.172   1.917
 1838SOL    HW1 5555   4.713   4.258   1.962
 1838SOL    HW2 5556   4.602   4.163   1.925
 1839SOL     OW 5557   4.228   3.946   2.722
 1839SOL    HW1 5558   4.279   3.917   2.800
 1839SOL    HW2 5559   4.215   4.041   2.739
 1840SOL     OW 5560   4.330   3.878   1.993
 1840SOL    HW1 5561   4.417   3.835   2.003
 1840SOL    HW2 5562   4.300   3.847   1.905
 1841SOL     OW 5563   4.158   3.720   2.322
 1841SOL    HW1 5564   4.107   3.745   2.401
 1841SOL    HW2 5565   4.230   3.785   2.322
 1842SOL     OW 5566   4.059   3.797   2.078
 1842SOL    HW1 5567   4.140   3.838   2.044
 1842SOL    HW2 5568   4.089   3.760   2.162
 1843SOL     OW 5569   4.330   3.823   2.941
 1843SOL    HW1 5570   4.375   3.738   2.924
 1843SOL    HW2 5571   4.262   3.796   3.006
 1844SOL     OW 5572   4.207   4.214   2.755
 1844SOL    HW1 5573   4.187   4.286   2.692
 1844SOL    HW2 5574   4.261   4.260   2.822
 1845SOL     OW 5575   3.995   3.790   2.527
 1845SOL    HW1 5576   3.979   3.886   2.527
 1845SOL    HW2 5577   4.005   3.770   2.621
 1846SOL     OW 5578   3.965   4.264   2.862
 1846SOL    HW1 5579   3.924   4.175   2.868
 1846SOL    HW2 5580   4.050   4.240   2.822
 1847SOL     OW 5581   4.541   0.017   2.255
 1847SOL    HW1 5582   4.589  -0.069   2.251
 1847SOL    HW2 5583   4.513   0.014   2.349
 1848SOL     OW 5584   3.936   4.059   2.553
 1848SOL    HW1 5585   3.842   4.069   2.529
 1848SOL    HW2 5586   3.932   4.054   2.650
 1849SOL     OW 5587   3.771   4.036   1.880
 1849SOL    HW1 5588   3.687   4.037   1.831
 1849SOL    HW2 5589   3.812   4.117   1.846
 1850SOL     OW 5590   3.786   3.858   2.094
 1850SOL    HW1 5591   3.773   3.919   2.019
 1850SOL    HW2 5592   3.882   3.845   2.091
 1851SOL     OW 5593   4.020   4.283   2.399
 1851SOL    HW1 5594   3.927   4.308   2.385
 1851SOL    HW2 5595   4.011   4.194   2.437
 1852NaJ    NaJ 5596   1.447   0.902   1.158
 1853NaJ    NaJ 5597   1.754   0.196   1.674
 1854NaJ    NaJ 5598   1.463   4.209   0.751
 1855NaJ    NaJ 5599   3.751   0.380   1.396
 1856NaJ    NaJ 5600   3.767   1.823   0.423
 1857ClJ    ClJ 5601   0.406   0.458   0.063
 1858ClJ    ClJ 5602   1.025   3.348   1.331
 1859ClJ    ClJ 5603   4.872   3.765   2.870
 1860ClJ    ClJ 5604   2.350   4.168   2.707
 1861ClJ    ClJ 5605   4.016   1.971   2.068
   4.33090   4.33090   3.06241   0.00000   0.00000   0.00000   0.00000   2.16545   2.16545
